+ 0.1 0 1 cbr 50 ------- 0 0.1 2.0 0 0
- 0.1 0 1 cbr 50 ------- 0 0.1 2.0 0 0
+ 0.1001 0 1 cbr 50 ------- 0 0.1 2.0 1 1
- 0.100133 0 1 cbr 50 ------- 0 0.1 2.0 1 1
+ 0.1002 0 1 cbr 50 ------- 0 0.1 2.0 2 2
- 0.100267 0 1 cbr 50 ------- 0 0.1 2.0 2 2
+ 0.1003 0 1 cbr 50 ------- 0 0.1 2.0 3 3
- 0.1004 0 1 cbr 50 ------- 0 0.1 2.0 3 3
+ 0.1004 0 1 cbr 50 ------- 0 0.1 2.0 4 4
+ 0.1005 0 1 cbr 50 ------- 0 0.1 2.0 5 5
- 0.100533 0 1 cbr 50 ------- 0 0.1 2.0 4 4
+ 0.1006 0 1 cbr 50 ------- 0 0.1 2.0 6 6
- 0.100667 0 1 cbr 50 ------- 0 0.1 2.0 5 5
+ 0.1007 0 1 cbr 50 ------- 0 0.1 2.0 7 7
- 0.1008 0 1 cbr 50 ------- 0 0.1 2.0 6 6
+ 0.1008 0 1 cbr 50 ------- 0 0.1 2.0 8 8
+ 0.1009 0 1 cbr 50 ------- 0 0.1 2.0 9 9
- 0.100933 0 1 cbr 50 ------- 0 0.1 2.0 7 7
+ 0.101 0 1 cbr 50 ------- 0 0.1 2.0 10 10
- 0.101067 0 1 cbr 50 ------- 0 0.1 2.0 8 8
+ 0.1011 0 1 cbr 50 ------- 0 0.1 2.0 11 11
r 0.101133 0 1 cbr 50 ------- 0 0.1 2.0 0 0
+ 0.101133 1 2 cbr 50 ------- 0 0.1 2.0 0 0
- 0.101133 1 2 cbr 50 ------- 0 0.1 2.0 0 0
- 0.1012 0 1 cbr 50 ------- 0 0.1 2.0 9 9
+ 0.1012 0 1 cbr 50 ------- 0 0.1 2.0 12 12
r 0.101267 0 1 cbr 50 ------- 0 0.1 2.0 1 1
+ 0.101267 1 2 cbr 50 ------- 0 0.1 2.0 1 1
- 0.101267 1 2 cbr 50 ------- 0 0.1 2.0 1 1
+ 0.1013 0 1 cbr 50 ------- 0 0.1 2.0 13 13
- 0.101333 0 1 cbr 50 ------- 0 0.1 2.0 10 10
r 0.1014 0 1 cbr 50 ------- 0 0.1 2.0 2 2
+ 0.1014 1 2 cbr 50 ------- 0 0.1 2.0 2 2
- 0.1014 1 2 cbr 50 ------- 0 0.1 2.0 2 2
+ 0.1014 0 1 cbr 50 ------- 0 0.1 2.0 14 14
- 0.101467 0 1 cbr 50 ------- 0 0.1 2.0 11 11
+ 0.1015 0 1 cbr 50 ------- 0 0.1 2.0 15 15
r 0.101533 0 1 cbr 50 ------- 0 0.1 2.0 3 3
+ 0.101533 1 2 cbr 50 ------- 0 0.1 2.0 3 3
- 0.101533 1 2 cbr 50 ------- 0 0.1 2.0 3 3
- 0.1016 0 1 cbr 50 ------- 0 0.1 2.0 12 12
+ 0.1016 0 1 cbr 50 ------- 0 0.1 2.0 16 16
r 0.101667 0 1 cbr 50 ------- 0 0.1 2.0 4 4
+ 0.101667 1 2 cbr 50 ------- 0 0.1 2.0 4 4
- 0.101667 1 2 cbr 50 ------- 0 0.1 2.0 4 4
+ 0.1017 0 1 cbr 50 ------- 0 0.1 2.0 17 17
- 0.101733 0 1 cbr 50 ------- 0 0.1 2.0 13 13
r 0.1018 0 1 cbr 50 ------- 0 0.1 2.0 5 5
+ 0.1018 1 2 cbr 50 ------- 0 0.1 2.0 5 5
- 0.1018 1 2 cbr 50 ------- 0 0.1 2.0 5 5
+ 0.1018 0 1 cbr 50 ------- 0 0.1 2.0 18 18
- 0.101867 0 1 cbr 50 ------- 0 0.1 2.0 14 14
+ 0.1019 0 1 cbr 50 ------- 0 0.1 2.0 19 19
r 0.101933 0 1 cbr 50 ------- 0 0.1 2.0 6 6
+ 0.101933 1 2 cbr 50 ------- 0 0.1 2.0 6 6
- 0.101933 1 2 cbr 50 ------- 0 0.1 2.0 6 6
- 0.102 0 1 cbr 50 ------- 0 0.1 2.0 15 15
+ 0.102 0 1 cbr 50 ------- 0 0.1 2.0 20 20
r 0.102067 0 1 cbr 50 ------- 0 0.1 2.0 7 7
+ 0.102067 1 2 cbr 50 ------- 0 0.1 2.0 7 7
- 0.102067 1 2 cbr 50 ------- 0 0.1 2.0 7 7
+ 0.1021 0 1 cbr 50 ------- 0 0.1 2.0 21 21
- 0.102133 0 1 cbr 50 ------- 0 0.1 2.0 16 16
r 0.1022 0 1 cbr 50 ------- 0 0.1 2.0 8 8
+ 0.1022 1 2 cbr 50 ------- 0 0.1 2.0 8 8
- 0.1022 1 2 cbr 50 ------- 0 0.1 2.0 8 8
+ 0.1022 0 1 cbr 50 ------- 0 0.1 2.0 22 22
- 0.102267 0 1 cbr 50 ------- 0 0.1 2.0 17 17
+ 0.1023 0 1 cbr 50 ------- 0 0.1 2.0 23 23
r 0.102333 0 1 cbr 50 ------- 0 0.1 2.0 9 9
+ 0.102333 1 2 cbr 50 ------- 0 0.1 2.0 9 9
- 0.102333 1 2 cbr 50 ------- 0 0.1 2.0 9 9
- 0.1024 0 1 cbr 50 ------- 0 0.1 2.0 18 18
+ 0.1024 0 1 cbr 50 ------- 0 0.1 2.0 24 24
r 0.102467 0 1 cbr 50 ------- 0 0.1 2.0 10 10
+ 0.102467 1 2 cbr 50 ------- 0 0.1 2.0 10 10
- 0.102467 1 2 cbr 50 ------- 0 0.1 2.0 10 10
+ 0.1025 0 1 cbr 50 ------- 0 0.1 2.0 25 25
- 0.102533 0 1 cbr 50 ------- 0 0.1 2.0 19 19
r 0.1026 0 1 cbr 50 ------- 0 0.1 2.0 11 11
+ 0.1026 1 2 cbr 50 ------- 0 0.1 2.0 11 11
- 0.1026 1 2 cbr 50 ------- 0 0.1 2.0 11 11
+ 0.1026 0 1 cbr 50 ------- 0 0.1 2.0 26 26
- 0.102667 0 1 cbr 50 ------- 0 0.1 2.0 20 20
+ 0.1027 0 1 cbr 50 ------- 0 0.1 2.0 27 27
r 0.102733 0 1 cbr 50 ------- 0 0.1 2.0 12 12
+ 0.102733 1 2 cbr 50 ------- 0 0.1 2.0 12 12
- 0.102733 1 2 cbr 50 ------- 0 0.1 2.0 12 12
- 0.1028 0 1 cbr 50 ------- 0 0.1 2.0 21 21
+ 0.1028 0 1 cbr 50 ------- 0 0.1 2.0 28 28
r 0.102867 0 1 cbr 50 ------- 0 0.1 2.0 13 13
+ 0.102867 1 2 cbr 50 ------- 0 0.1 2.0 13 13
- 0.102867 1 2 cbr 50 ------- 0 0.1 2.0 13 13
+ 0.1029 0 1 cbr 50 ------- 0 0.1 2.0 29 29
- 0.102933 0 1 cbr 50 ------- 0 0.1 2.0 22 22
r 0.103 0 1 cbr 50 ------- 0 0.1 2.0 14 14
+ 0.103 1 2 cbr 50 ------- 0 0.1 2.0 14 14
- 0.103 1 2 cbr 50 ------- 0 0.1 2.0 14 14
+ 0.103 0 1 cbr 50 ------- 0 0.1 2.0 30 30
- 0.103067 0 1 cbr 50 ------- 0 0.1 2.0 23 23
+ 0.1031 0 1 cbr 50 ------- 0 0.1 2.0 31 31
r 0.103133 0 1 cbr 50 ------- 0 0.1 2.0 15 15
+ 0.103133 1 2 cbr 50 ------- 0 0.1 2.0 15 15
- 0.103133 1 2 cbr 50 ------- 0 0.1 2.0 15 15
- 0.1032 0 1 cbr 50 ------- 0 0.1 2.0 24 24
+ 0.1032 0 1 cbr 50 ------- 0 0.1 2.0 32 32
r 0.103267 0 1 cbr 50 ------- 0 0.1 2.0 16 16
+ 0.103267 1 2 cbr 50 ------- 0 0.1 2.0 16 16
- 0.103267 1 2 cbr 50 ------- 0 0.1 2.0 16 16
+ 0.1033 0 1 cbr 50 ------- 0 0.1 2.0 33 33
- 0.103333 0 1 cbr 50 ------- 0 0.1 2.0 25 25
r 0.1034 0 1 cbr 50 ------- 0 0.1 2.0 17 17
+ 0.1034 1 2 cbr 50 ------- 0 0.1 2.0 17 17
- 0.1034 1 2 cbr 50 ------- 0 0.1 2.0 17 17
+ 0.1034 0 1 cbr 50 ------- 0 0.1 2.0 34 34
- 0.103467 0 1 cbr 50 ------- 0 0.1 2.0 26 26
+ 0.1035 0 1 cbr 50 ------- 0 0.1 2.0 35 35
r 0.103533 0 1 cbr 50 ------- 0 0.1 2.0 18 18
+ 0.103533 1 2 cbr 50 ------- 0 0.1 2.0 18 18
- 0.103533 1 2 cbr 50 ------- 0 0.1 2.0 18 18
- 0.1036 0 1 cbr 50 ------- 0 0.1 2.0 27 27
+ 0.1036 0 1 cbr 50 ------- 0 0.1 2.0 36 36
r 0.103667 0 1 cbr 50 ------- 0 0.1 2.0 19 19
+ 0.103667 1 2 cbr 50 ------- 0 0.1 2.0 19 19
- 0.103667 1 2 cbr 50 ------- 0 0.1 2.0 19 19
+ 0.1037 0 1 cbr 50 ------- 0 0.1 2.0 37 37
d 0.1037 0 1 cbr 50 ------- 0 0.1 2.0 37 37
- 0.103733 0 1 cbr 50 ------- 0 0.1 2.0 28 28
r 0.1038 0 1 cbr 50 ------- 0 0.1 2.0 20 20
+ 0.1038 1 2 cbr 50 ------- 0 0.1 2.0 20 20
- 0.1038 1 2 cbr 50 ------- 0 0.1 2.0 20 20
+ 0.1038 0 1 cbr 50 ------- 0 0.1 2.0 38 38
- 0.103867 0 1 cbr 50 ------- 0 0.1 2.0 29 29
+ 0.1039 0 1 cbr 50 ------- 0 0.1 2.0 39 39
r 0.103933 0 1 cbr 50 ------- 0 0.1 2.0 21 21
+ 0.103933 1 2 cbr 50 ------- 0 0.1 2.0 21 21
- 0.103933 1 2 cbr 50 ------- 0 0.1 2.0 21 21
- 0.104 0 1 cbr 50 ------- 0 0.1 2.0 30 30
+ 0.104 0 1 cbr 50 ------- 0 0.1 2.0 40 40
r 0.104067 0 1 cbr 50 ------- 0 0.1 2.0 22 22
+ 0.104067 1 2 cbr 50 ------- 0 0.1 2.0 22 22
- 0.104067 1 2 cbr 50 ------- 0 0.1 2.0 22 22
+ 0.1041 0 1 cbr 50 ------- 0 0.1 2.0 41 41
d 0.1041 0 1 cbr 50 ------- 0 0.1 2.0 41 41
- 0.104133 0 1 cbr 50 ------- 0 0.1 2.0 31 31
r 0.1042 0 1 cbr 50 ------- 0 0.1 2.0 23 23
+ 0.1042 1 2 cbr 50 ------- 0 0.1 2.0 23 23
- 0.1042 1 2 cbr 50 ------- 0 0.1 2.0 23 23
+ 0.1042 0 1 cbr 50 ------- 0 0.1 2.0 42 42
- 0.104267 0 1 cbr 50 ------- 0 0.1 2.0 32 32
+ 0.1043 0 1 cbr 50 ------- 0 0.1 2.0 43 43
r 0.104333 0 1 cbr 50 ------- 0 0.1 2.0 24 24
+ 0.104333 1 2 cbr 50 ------- 0 0.1 2.0 24 24
- 0.104333 1 2 cbr 50 ------- 0 0.1 2.0 24 24
- 0.1044 0 1 cbr 50 ------- 0 0.1 2.0 33 33
+ 0.1044 0 1 cbr 50 ------- 0 0.1 2.0 44 44
r 0.104467 0 1 cbr 50 ------- 0 0.1 2.0 25 25
+ 0.104467 1 2 cbr 50 ------- 0 0.1 2.0 25 25
- 0.104467 1 2 cbr 50 ------- 0 0.1 2.0 25 25
+ 0.1045 0 1 cbr 50 ------- 0 0.1 2.0 45 45
d 0.1045 0 1 cbr 50 ------- 0 0.1 2.0 45 45
- 0.104533 0 1 cbr 50 ------- 0 0.1 2.0 34 34
r 0.1046 0 1 cbr 50 ------- 0 0.1 2.0 26 26
+ 0.1046 1 2 cbr 50 ------- 0 0.1 2.0 26 26
- 0.1046 1 2 cbr 50 ------- 0 0.1 2.0 26 26
+ 0.1046 0 1 cbr 50 ------- 0 0.1 2.0 46 46
- 0.104667 0 1 cbr 50 ------- 0 0.1 2.0 35 35
+ 0.1047 0 1 cbr 50 ------- 0 0.1 2.0 47 47
r 0.104733 0 1 cbr 50 ------- 0 0.1 2.0 27 27
+ 0.104733 1 2 cbr 50 ------- 0 0.1 2.0 27 27
- 0.104733 1 2 cbr 50 ------- 0 0.1 2.0 27 27
- 0.1048 0 1 cbr 50 ------- 0 0.1 2.0 36 36
+ 0.1048 0 1 cbr 50 ------- 0 0.1 2.0 48 48
r 0.104867 0 1 cbr 50 ------- 0 0.1 2.0 28 28
+ 0.104867 1 2 cbr 50 ------- 0 0.1 2.0 28 28
- 0.104867 1 2 cbr 50 ------- 0 0.1 2.0 28 28
+ 0.1049 0 1 cbr 50 ------- 0 0.1 2.0 49 49
d 0.1049 0 1 cbr 50 ------- 0 0.1 2.0 49 49
- 0.104933 0 1 cbr 50 ------- 0 0.1 2.0 38 38
r 0.105 0 1 cbr 50 ------- 0 0.1 2.0 29 29
+ 0.105 1 2 cbr 50 ------- 0 0.1 2.0 29 29
- 0.105 1 2 cbr 50 ------- 0 0.1 2.0 29 29
+ 0.105 0 1 cbr 50 ------- 0 0.1 2.0 50 50
- 0.105067 0 1 cbr 50 ------- 0 0.1 2.0 39 39
+ 0.1051 0 1 cbr 50 ------- 0 0.1 2.0 51 51
r 0.105133 0 1 cbr 50 ------- 0 0.1 2.0 30 30
+ 0.105133 1 2 cbr 50 ------- 0 0.1 2.0 30 30
- 0.105133 1 2 cbr 50 ------- 0 0.1 2.0 30 30
- 0.1052 0 1 cbr 50 ------- 0 0.1 2.0 40 40
+ 0.1052 0 1 cbr 50 ------- 0 0.1 2.0 52 52
r 0.105267 0 1 cbr 50 ------- 0 0.1 2.0 31 31
+ 0.105267 1 2 cbr 50 ------- 0 0.1 2.0 31 31
- 0.105267 1 2 cbr 50 ------- 0 0.1 2.0 31 31
+ 0.1053 0 1 cbr 50 ------- 0 0.1 2.0 53 53
d 0.1053 0 1 cbr 50 ------- 0 0.1 2.0 53 53
- 0.105333 0 1 cbr 50 ------- 0 0.1 2.0 42 42
r 0.1054 0 1 cbr 50 ------- 0 0.1 2.0 32 32
+ 0.1054 1 2 cbr 50 ------- 0 0.1 2.0 32 32
- 0.1054 1 2 cbr 50 ------- 0 0.1 2.0 32 32
+ 0.1054 0 1 cbr 50 ------- 0 0.1 2.0 54 54
- 0.105467 0 1 cbr 50 ------- 0 0.1 2.0 43 43
+ 0.1055 0 1 cbr 50 ------- 0 0.1 2.0 55 55
r 0.105533 0 1 cbr 50 ------- 0 0.1 2.0 33 33
+ 0.105533 1 2 cbr 50 ------- 0 0.1 2.0 33 33
- 0.105533 1 2 cbr 50 ------- 0 0.1 2.0 33 33
- 0.1056 0 1 cbr 50 ------- 0 0.1 2.0 44 44
+ 0.1056 0 1 cbr 50 ------- 0 0.1 2.0 56 56
r 0.105667 0 1 cbr 50 ------- 0 0.1 2.0 34 34
+ 0.105667 1 2 cbr 50 ------- 0 0.1 2.0 34 34
- 0.105667 1 2 cbr 50 ------- 0 0.1 2.0 34 34
+ 0.1057 0 1 cbr 50 ------- 0 0.1 2.0 57 57
d 0.1057 0 1 cbr 50 ------- 0 0.1 2.0 57 57
- 0.105733 0 1 cbr 50 ------- 0 0.1 2.0 46 46
r 0.1058 0 1 cbr 50 ------- 0 0.1 2.0 35 35
+ 0.1058 1 2 cbr 50 ------- 0 0.1 2.0 35 35
- 0.1058 1 2 cbr 50 ------- 0 0.1 2.0 35 35
+ 0.1058 0 1 cbr 50 ------- 0 0.1 2.0 58 58
- 0.105867 0 1 cbr 50 ------- 0 0.1 2.0 47 47
+ 0.1059 0 1 cbr 50 ------- 0 0.1 2.0 59 59
r 0.105933 0 1 cbr 50 ------- 0 0.1 2.0 36 36
+ 0.105933 1 2 cbr 50 ------- 0 0.1 2.0 36 36
- 0.105933 1 2 cbr 50 ------- 0 0.1 2.0 36 36
- 0.106 0 1 cbr 50 ------- 0 0.1 2.0 48 48
+ 0.106 0 1 cbr 50 ------- 0 0.1 2.0 60 60
r 0.106067 0 1 cbr 50 ------- 0 0.1 2.0 38 38
+ 0.106067 1 2 cbr 50 ------- 0 0.1 2.0 38 38
- 0.106067 1 2 cbr 50 ------- 0 0.1 2.0 38 38
+ 0.1061 0 1 cbr 50 ------- 0 0.1 2.0 61 61
d 0.1061 0 1 cbr 50 ------- 0 0.1 2.0 61 61
- 0.106133 0 1 cbr 50 ------- 0 0.1 2.0 50 50
r 0.1062 0 1 cbr 50 ------- 0 0.1 2.0 39 39
+ 0.1062 1 2 cbr 50 ------- 0 0.1 2.0 39 39
- 0.1062 1 2 cbr 50 ------- 0 0.1 2.0 39 39
+ 0.1062 0 1 cbr 50 ------- 0 0.1 2.0 62 62
- 0.106267 0 1 cbr 50 ------- 0 0.1 2.0 51 51
+ 0.1063 0 1 cbr 50 ------- 0 0.1 2.0 63 63
r 0.106333 0 1 cbr 50 ------- 0 0.1 2.0 40 40
+ 0.106333 1 2 cbr 50 ------- 0 0.1 2.0 40 40
- 0.106333 1 2 cbr 50 ------- 0 0.1 2.0 40 40
- 0.1064 0 1 cbr 50 ------- 0 0.1 2.0 52 52
+ 0.1064 0 1 cbr 50 ------- 0 0.1 2.0 64 64
r 0.106467 0 1 cbr 50 ------- 0 0.1 2.0 42 42
+ 0.106467 1 2 cbr 50 ------- 0 0.1 2.0 42 42
- 0.106467 1 2 cbr 50 ------- 0 0.1 2.0 42 42
+ 0.1065 0 1 cbr 50 ------- 0 0.1 2.0 65 65
d 0.1065 0 1 cbr 50 ------- 0 0.1 2.0 65 65
- 0.106533 0 1 cbr 50 ------- 0 0.1 2.0 54 54
r 0.1066 0 1 cbr 50 ------- 0 0.1 2.0 43 43
+ 0.1066 1 2 cbr 50 ------- 0 0.1 2.0 43 43
- 0.1066 1 2 cbr 50 ------- 0 0.1 2.0 43 43
+ 0.1066 0 1 cbr 50 ------- 0 0.1 2.0 66 66
- 0.106667 0 1 cbr 50 ------- 0 0.1 2.0 55 55
+ 0.1067 0 1 cbr 50 ------- 0 0.1 2.0 67 67
r 0.106733 0 1 cbr 50 ------- 0 0.1 2.0 44 44
+ 0.106733 1 2 cbr 50 ------- 0 0.1 2.0 44 44
- 0.106733 1 2 cbr 50 ------- 0 0.1 2.0 44 44
- 0.1068 0 1 cbr 50 ------- 0 0.1 2.0 56 56
+ 0.1068 0 1 cbr 50 ------- 0 0.1 2.0 68 68
r 0.106867 0 1 cbr 50 ------- 0 0.1 2.0 46 46
+ 0.106867 1 2 cbr 50 ------- 0 0.1 2.0 46 46
- 0.106867 1 2 cbr 50 ------- 0 0.1 2.0 46 46
+ 0.1069 0 1 cbr 50 ------- 0 0.1 2.0 69 69
d 0.1069 0 1 cbr 50 ------- 0 0.1 2.0 69 69
- 0.106933 0 1 cbr 50 ------- 0 0.1 2.0 58 58
r 0.107 0 1 cbr 50 ------- 0 0.1 2.0 47 47
+ 0.107 1 2 cbr 50 ------- 0 0.1 2.0 47 47
- 0.107 1 2 cbr 50 ------- 0 0.1 2.0 47 47
+ 0.107 0 1 cbr 50 ------- 0 0.1 2.0 70 70
- 0.107067 0 1 cbr 50 ------- 0 0.1 2.0 59 59
+ 0.1071 0 1 cbr 50 ------- 0 0.1 2.0 71 71
r 0.107133 0 1 cbr 50 ------- 0 0.1 2.0 48 48
+ 0.107133 1 2 cbr 50 ------- 0 0.1 2.0 48 48
- 0.107133 1 2 cbr 50 ------- 0 0.1 2.0 48 48
- 0.1072 0 1 cbr 50 ------- 0 0.1 2.0 60 60
+ 0.1072 0 1 cbr 50 ------- 0 0.1 2.0 72 72
r 0.107267 0 1 cbr 50 ------- 0 0.1 2.0 50 50
+ 0.107267 1 2 cbr 50 ------- 0 0.1 2.0 50 50
- 0.107267 1 2 cbr 50 ------- 0 0.1 2.0 50 50
+ 0.1073 0 1 cbr 50 ------- 0 0.1 2.0 73 73
d 0.1073 0 1 cbr 50 ------- 0 0.1 2.0 73 73
- 0.107333 0 1 cbr 50 ------- 0 0.1 2.0 62 62
r 0.1074 0 1 cbr 50 ------- 0 0.1 2.0 51 51
+ 0.1074 1 2 cbr 50 ------- 0 0.1 2.0 51 51
- 0.1074 1 2 cbr 50 ------- 0 0.1 2.0 51 51
+ 0.1074 0 1 cbr 50 ------- 0 0.1 2.0 74 74
- 0.107467 0 1 cbr 50 ------- 0 0.1 2.0 63 63
+ 0.1075 0 1 cbr 50 ------- 0 0.1 2.0 75 75
r 0.107533 0 1 cbr 50 ------- 0 0.1 2.0 52 52
+ 0.107533 1 2 cbr 50 ------- 0 0.1 2.0 52 52
- 0.107533 1 2 cbr 50 ------- 0 0.1 2.0 52 52
- 0.1076 0 1 cbr 50 ------- 0 0.1 2.0 64 64
+ 0.1076 0 1 cbr 50 ------- 0 0.1 2.0 76 76
r 0.107667 0 1 cbr 50 ------- 0 0.1 2.0 54 54
+ 0.107667 1 2 cbr 50 ------- 0 0.1 2.0 54 54
- 0.107667 1 2 cbr 50 ------- 0 0.1 2.0 54 54
+ 0.1077 0 1 cbr 50 ------- 0 0.1 2.0 77 77
d 0.1077 0 1 cbr 50 ------- 0 0.1 2.0 77 77
- 0.107733 0 1 cbr 50 ------- 0 0.1 2.0 66 66
r 0.1078 0 1 cbr 50 ------- 0 0.1 2.0 55 55
+ 0.1078 1 2 cbr 50 ------- 0 0.1 2.0 55 55
- 0.1078 1 2 cbr 50 ------- 0 0.1 2.0 55 55
+ 0.1078 0 1 cbr 50 ------- 0 0.1 2.0 78 78
- 0.107867 0 1 cbr 50 ------- 0 0.1 2.0 67 67
+ 0.1079 0 1 cbr 50 ------- 0 0.1 2.0 79 79
r 0.107933 0 1 cbr 50 ------- 0 0.1 2.0 56 56
+ 0.107933 1 2 cbr 50 ------- 0 0.1 2.0 56 56
- 0.107933 1 2 cbr 50 ------- 0 0.1 2.0 56 56
- 0.108 0 1 cbr 50 ------- 0 0.1 2.0 68 68
+ 0.108 0 1 cbr 50 ------- 0 0.1 2.0 80 80
r 0.108067 0 1 cbr 50 ------- 0 0.1 2.0 58 58
+ 0.108067 1 2 cbr 50 ------- 0 0.1 2.0 58 58
- 0.108067 1 2 cbr 50 ------- 0 0.1 2.0 58 58
+ 0.1081 0 1 cbr 50 ------- 0 0.1 2.0 81 81
d 0.1081 0 1 cbr 50 ------- 0 0.1 2.0 81 81
- 0.108133 0 1 cbr 50 ------- 0 0.1 2.0 70 70
r 0.1082 0 1 cbr 50 ------- 0 0.1 2.0 59 59
+ 0.1082 1 2 cbr 50 ------- 0 0.1 2.0 59 59
- 0.1082 1 2 cbr 50 ------- 0 0.1 2.0 59 59
+ 0.1082 0 1 cbr 50 ------- 0 0.1 2.0 82 82
- 0.108267 0 1 cbr 50 ------- 0 0.1 2.0 71 71
+ 0.1083 0 1 cbr 50 ------- 0 0.1 2.0 83 83
r 0.108333 0 1 cbr 50 ------- 0 0.1 2.0 60 60
+ 0.108333 1 2 cbr 50 ------- 0 0.1 2.0 60 60
- 0.108333 1 2 cbr 50 ------- 0 0.1 2.0 60 60
- 0.1084 0 1 cbr 50 ------- 0 0.1 2.0 72 72
+ 0.1084 0 1 cbr 50 ------- 0 0.1 2.0 84 84
r 0.108467 0 1 cbr 50 ------- 0 0.1 2.0 62 62
+ 0.108467 1 2 cbr 50 ------- 0 0.1 2.0 62 62
- 0.108467 1 2 cbr 50 ------- 0 0.1 2.0 62 62
+ 0.1085 0 1 cbr 50 ------- 0 0.1 2.0 85 85
d 0.1085 0 1 cbr 50 ------- 0 0.1 2.0 85 85
- 0.108533 0 1 cbr 50 ------- 0 0.1 2.0 74 74
r 0.1086 0 1 cbr 50 ------- 0 0.1 2.0 63 63
+ 0.1086 1 2 cbr 50 ------- 0 0.1 2.0 63 63
- 0.1086 1 2 cbr 50 ------- 0 0.1 2.0 63 63
+ 0.1086 0 1 cbr 50 ------- 0 0.1 2.0 86 86
- 0.108667 0 1 cbr 50 ------- 0 0.1 2.0 75 75
+ 0.1087 0 1 cbr 50 ------- 0 0.1 2.0 87 87
r 0.108733 0 1 cbr 50 ------- 0 0.1 2.0 64 64
+ 0.108733 1 2 cbr 50 ------- 0 0.1 2.0 64 64
- 0.108733 1 2 cbr 50 ------- 0 0.1 2.0 64 64
- 0.1088 0 1 cbr 50 ------- 0 0.1 2.0 76 76
+ 0.1088 0 1 cbr 50 ------- 0 0.1 2.0 88 88
r 0.108867 0 1 cbr 50 ------- 0 0.1 2.0 66 66
+ 0.108867 1 2 cbr 50 ------- 0 0.1 2.0 66 66
- 0.108867 1 2 cbr 50 ------- 0 0.1 2.0 66 66
+ 0.1089 0 1 cbr 50 ------- 0 0.1 2.0 89 89
d 0.1089 0 1 cbr 50 ------- 0 0.1 2.0 89 89
- 0.108933 0 1 cbr 50 ------- 0 0.1 2.0 78 78
r 0.109 0 1 cbr 50 ------- 0 0.1 2.0 67 67
+ 0.109 1 2 cbr 50 ------- 0 0.1 2.0 67 67
- 0.109 1 2 cbr 50 ------- 0 0.1 2.0 67 67
+ 0.109 0 1 cbr 50 ------- 0 0.1 2.0 90 90
- 0.109067 0 1 cbr 50 ------- 0 0.1 2.0 79 79
+ 0.1091 0 1 cbr 50 ------- 0 0.1 2.0 91 91
r 0.109133 0 1 cbr 50 ------- 0 0.1 2.0 68 68
+ 0.109133 1 2 cbr 50 ------- 0 0.1 2.0 68 68
- 0.109133 1 2 cbr 50 ------- 0 0.1 2.0 68 68
- 0.1092 0 1 cbr 50 ------- 0 0.1 2.0 80 80
+ 0.1092 0 1 cbr 50 ------- 0 0.1 2.0 92 92
r 0.109267 0 1 cbr 50 ------- 0 0.1 2.0 70 70
+ 0.109267 1 2 cbr 50 ------- 0 0.1 2.0 70 70
- 0.109267 1 2 cbr 50 ------- 0 0.1 2.0 70 70
+ 0.1093 0 1 cbr 50 ------- 0 0.1 2.0 93 93
d 0.1093 0 1 cbr 50 ------- 0 0.1 2.0 93 93
- 0.109333 0 1 cbr 50 ------- 0 0.1 2.0 82 82
r 0.1094 0 1 cbr 50 ------- 0 0.1 2.0 71 71
+ 0.1094 1 2 cbr 50 ------- 0 0.1 2.0 71 71
- 0.1094 1 2 cbr 50 ------- 0 0.1 2.0 71 71
+ 0.1094 0 1 cbr 50 ------- 0 0.1 2.0 94 94
- 0.109467 0 1 cbr 50 ------- 0 0.1 2.0 83 83
+ 0.1095 0 1 cbr 50 ------- 0 0.1 2.0 95 95
r 0.109533 0 1 cbr 50 ------- 0 0.1 2.0 72 72
+ 0.109533 1 2 cbr 50 ------- 0 0.1 2.0 72 72
- 0.109533 1 2 cbr 50 ------- 0 0.1 2.0 72 72
- 0.1096 0 1 cbr 50 ------- 0 0.1 2.0 84 84
+ 0.1096 0 1 cbr 50 ------- 0 0.1 2.0 96 96
r 0.109667 0 1 cbr 50 ------- 0 0.1 2.0 74 74
+ 0.109667 1 2 cbr 50 ------- 0 0.1 2.0 74 74
- 0.109667 1 2 cbr 50 ------- 0 0.1 2.0 74 74
+ 0.1097 0 1 cbr 50 ------- 0 0.1 2.0 97 97
d 0.1097 0 1 cbr 50 ------- 0 0.1 2.0 97 97
- 0.109733 0 1 cbr 50 ------- 0 0.1 2.0 86 86
r 0.1098 0 1 cbr 50 ------- 0 0.1 2.0 75 75
+ 0.1098 1 2 cbr 50 ------- 0 0.1 2.0 75 75
- 0.1098 1 2 cbr 50 ------- 0 0.1 2.0 75 75
+ 0.1098 0 1 cbr 50 ------- 0 0.1 2.0 98 98
- 0.109867 0 1 cbr 50 ------- 0 0.1 2.0 87 87
+ 0.1099 0 1 cbr 50 ------- 0 0.1 2.0 99 99
r 0.109933 0 1 cbr 50 ------- 0 0.1 2.0 76 76
+ 0.109933 1 2 cbr 50 ------- 0 0.1 2.0 76 76
- 0.109933 1 2 cbr 50 ------- 0 0.1 2.0 76 76
- 0.11 0 1 cbr 50 ------- 0 0.1 2.0 88 88
+ 0.11 0 1 cbr 50 ------- 0 0.1 2.0 100 100
r 0.110067 0 1 cbr 50 ------- 0 0.1 2.0 78 78
+ 0.110067 1 2 cbr 50 ------- 0 0.1 2.0 78 78
- 0.110067 1 2 cbr 50 ------- 0 0.1 2.0 78 78
+ 0.1101 0 1 cbr 50 ------- 0 0.1 2.0 101 101
d 0.1101 0 1 cbr 50 ------- 0 0.1 2.0 101 101
- 0.110133 0 1 cbr 50 ------- 0 0.1 2.0 90 90
r 0.1102 0 1 cbr 50 ------- 0 0.1 2.0 79 79
+ 0.1102 1 2 cbr 50 ------- 0 0.1 2.0 79 79
- 0.1102 1 2 cbr 50 ------- 0 0.1 2.0 79 79
+ 0.1102 0 1 cbr 50 ------- 0 0.1 2.0 102 102
- 0.110267 0 1 cbr 50 ------- 0 0.1 2.0 91 91
+ 0.1103 0 1 cbr 50 ------- 0 0.1 2.0 103 103
r 0.110333 0 1 cbr 50 ------- 0 0.1 2.0 80 80
+ 0.110333 1 2 cbr 50 ------- 0 0.1 2.0 80 80
- 0.110333 1 2 cbr 50 ------- 0 0.1 2.0 80 80
- 0.1104 0 1 cbr 50 ------- 0 0.1 2.0 92 92
+ 0.1104 0 1 cbr 50 ------- 0 0.1 2.0 104 104
r 0.110467 0 1 cbr 50 ------- 0 0.1 2.0 82 82
+ 0.110467 1 2 cbr 50 ------- 0 0.1 2.0 82 82
- 0.110467 1 2 cbr 50 ------- 0 0.1 2.0 82 82
+ 0.1105 0 1 cbr 50 ------- 0 0.1 2.0 105 105
d 0.1105 0 1 cbr 50 ------- 0 0.1 2.0 105 105
- 0.110533 0 1 cbr 50 ------- 0 0.1 2.0 94 94
r 0.1106 0 1 cbr 50 ------- 0 0.1 2.0 83 83
+ 0.1106 1 2 cbr 50 ------- 0 0.1 2.0 83 83
- 0.1106 1 2 cbr 50 ------- 0 0.1 2.0 83 83
+ 0.1106 0 1 cbr 50 ------- 0 0.1 2.0 106 106
- 0.110667 0 1 cbr 50 ------- 0 0.1 2.0 95 95
+ 0.1107 0 1 cbr 50 ------- 0 0.1 2.0 107 107
r 0.110733 0 1 cbr 50 ------- 0 0.1 2.0 84 84
+ 0.110733 1 2 cbr 50 ------- 0 0.1 2.0 84 84
- 0.110733 1 2 cbr 50 ------- 0 0.1 2.0 84 84
- 0.1108 0 1 cbr 50 ------- 0 0.1 2.0 96 96
+ 0.1108 0 1 cbr 50 ------- 0 0.1 2.0 108 108
r 0.110867 0 1 cbr 50 ------- 0 0.1 2.0 86 86
+ 0.110867 1 2 cbr 50 ------- 0 0.1 2.0 86 86
- 0.110867 1 2 cbr 50 ------- 0 0.1 2.0 86 86
+ 0.1109 0 1 cbr 50 ------- 0 0.1 2.0 109 109
d 0.1109 0 1 cbr 50 ------- 0 0.1 2.0 109 109
- 0.110933 0 1 cbr 50 ------- 0 0.1 2.0 98 98
r 0.111 0 1 cbr 50 ------- 0 0.1 2.0 87 87
+ 0.111 1 2 cbr 50 ------- 0 0.1 2.0 87 87
- 0.111 1 2 cbr 50 ------- 0 0.1 2.0 87 87
+ 0.111 0 1 cbr 50 ------- 0 0.1 2.0 110 110
- 0.111067 0 1 cbr 50 ------- 0 0.1 2.0 99 99
+ 0.1111 0 1 cbr 50 ------- 0 0.1 2.0 111 111
r 0.111133 0 1 cbr 50 ------- 0 0.1 2.0 88 88
+ 0.111133 1 2 cbr 50 ------- 0 0.1 2.0 88 88
- 0.111133 1 2 cbr 50 ------- 0 0.1 2.0 88 88
- 0.1112 0 1 cbr 50 ------- 0 0.1 2.0 100 100
+ 0.1112 0 1 cbr 50 ------- 0 0.1 2.0 112 112
r 0.111267 0 1 cbr 50 ------- 0 0.1 2.0 90 90
+ 0.111267 1 2 cbr 50 ------- 0 0.1 2.0 90 90
- 0.111267 1 2 cbr 50 ------- 0 0.1 2.0 90 90
r 0.111267 1 2 cbr 50 ------- 0 0.1 2.0 0 0
+ 0.1113 0 1 cbr 50 ------- 0 0.1 2.0 113 113
d 0.1113 0 1 cbr 50 ------- 0 0.1 2.0 113 113
- 0.111333 0 1 cbr 50 ------- 0 0.1 2.0 102 102
r 0.1114 0 1 cbr 50 ------- 0 0.1 2.0 91 91
+ 0.1114 1 2 cbr 50 ------- 0 0.1 2.0 91 91
- 0.1114 1 2 cbr 50 ------- 0 0.1 2.0 91 91
r 0.1114 1 2 cbr 50 ------- 0 0.1 2.0 1 1
+ 0.1114 0 1 cbr 50 ------- 0 0.1 2.0 114 114
- 0.111467 0 1 cbr 50 ------- 0 0.1 2.0 103 103
+ 0.1115 0 1 cbr 50 ------- 0 0.1 2.0 115 115
r 0.111533 0 1 cbr 50 ------- 0 0.1 2.0 92 92
+ 0.111533 1 2 cbr 50 ------- 0 0.1 2.0 92 92
- 0.111533 1 2 cbr 50 ------- 0 0.1 2.0 92 92
r 0.111533 1 2 cbr 50 ------- 0 0.1 2.0 2 2
- 0.1116 0 1 cbr 50 ------- 0 0.1 2.0 104 104
+ 0.1116 0 1 cbr 50 ------- 0 0.1 2.0 116 116
r 0.111667 0 1 cbr 50 ------- 0 0.1 2.0 94 94
+ 0.111667 1 2 cbr 50 ------- 0 0.1 2.0 94 94
- 0.111667 1 2 cbr 50 ------- 0 0.1 2.0 94 94
r 0.111667 1 2 cbr 50 ------- 0 0.1 2.0 3 3
+ 0.1117 0 1 cbr 50 ------- 0 0.1 2.0 117 117
d 0.1117 0 1 cbr 50 ------- 0 0.1 2.0 117 117
- 0.111733 0 1 cbr 50 ------- 0 0.1 2.0 106 106
r 0.1118 0 1 cbr 50 ------- 0 0.1 2.0 95 95
+ 0.1118 1 2 cbr 50 ------- 0 0.1 2.0 95 95
- 0.1118 1 2 cbr 50 ------- 0 0.1 2.0 95 95
r 0.1118 1 2 cbr 50 ------- 0 0.1 2.0 4 4
+ 0.1118 0 1 cbr 50 ------- 0 0.1 2.0 118 118
- 0.111867 0 1 cbr 50 ------- 0 0.1 2.0 107 107
+ 0.1119 0 1 cbr 50 ------- 0 0.1 2.0 119 119
r 0.111933 0 1 cbr 50 ------- 0 0.1 2.0 96 96
+ 0.111933 1 2 cbr 50 ------- 0 0.1 2.0 96 96
- 0.111933 1 2 cbr 50 ------- 0 0.1 2.0 96 96
r 0.111933 1 2 cbr 50 ------- 0 0.1 2.0 5 5
- 0.112 0 1 cbr 50 ------- 0 0.1 2.0 108 108
+ 0.112 0 1 cbr 50 ------- 0 0.1 2.0 120 120
r 0.112067 0 1 cbr 50 ------- 0 0.1 2.0 98 98
+ 0.112067 1 2 cbr 50 ------- 0 0.1 2.0 98 98
- 0.112067 1 2 cbr 50 ------- 0 0.1 2.0 98 98
r 0.112067 1 2 cbr 50 ------- 0 0.1 2.0 6 6
+ 0.1121 0 1 cbr 50 ------- 0 0.1 2.0 121 121
d 0.1121 0 1 cbr 50 ------- 0 0.1 2.0 121 121
- 0.112133 0 1 cbr 50 ------- 0 0.1 2.0 110 110
r 0.1122 0 1 cbr 50 ------- 0 0.1 2.0 99 99
+ 0.1122 1 2 cbr 50 ------- 0 0.1 2.0 99 99
- 0.1122 1 2 cbr 50 ------- 0 0.1 2.0 99 99
r 0.1122 1 2 cbr 50 ------- 0 0.1 2.0 7 7
+ 0.1122 0 1 cbr 50 ------- 0 0.1 2.0 122 122
- 0.112267 0 1 cbr 50 ------- 0 0.1 2.0 111 111
+ 0.1123 0 1 cbr 50 ------- 0 0.1 2.0 123 123
r 0.112333 0 1 cbr 50 ------- 0 0.1 2.0 100 100
+ 0.112333 1 2 cbr 50 ------- 0 0.1 2.0 100 100
- 0.112333 1 2 cbr 50 ------- 0 0.1 2.0 100 100
r 0.112333 1 2 cbr 50 ------- 0 0.1 2.0 8 8
- 0.1124 0 1 cbr 50 ------- 0 0.1 2.0 112 112
+ 0.1124 0 1 cbr 50 ------- 0 0.1 2.0 124 124
r 0.112467 0 1 cbr 50 ------- 0 0.1 2.0 102 102
+ 0.112467 1 2 cbr 50 ------- 0 0.1 2.0 102 102
- 0.112467 1 2 cbr 50 ------- 0 0.1 2.0 102 102
r 0.112467 1 2 cbr 50 ------- 0 0.1 2.0 9 9
+ 0.1125 0 1 cbr 50 ------- 0 0.1 2.0 125 125
d 0.1125 0 1 cbr 50 ------- 0 0.1 2.0 125 125
- 0.112533 0 1 cbr 50 ------- 0 0.1 2.0 114 114
r 0.1126 0 1 cbr 50 ------- 0 0.1 2.0 103 103
+ 0.1126 1 2 cbr 50 ------- 0 0.1 2.0 103 103
- 0.1126 1 2 cbr 50 ------- 0 0.1 2.0 103 103
r 0.1126 1 2 cbr 50 ------- 0 0.1 2.0 10 10
+ 0.1126 0 1 cbr 50 ------- 0 0.1 2.0 126 126
- 0.112667 0 1 cbr 50 ------- 0 0.1 2.0 115 115
+ 0.1127 0 1 cbr 50 ------- 0 0.1 2.0 127 127
r 0.112733 0 1 cbr 50 ------- 0 0.1 2.0 104 104
+ 0.112733 1 2 cbr 50 ------- 0 0.1 2.0 104 104
- 0.112733 1 2 cbr 50 ------- 0 0.1 2.0 104 104
r 0.112733 1 2 cbr 50 ------- 0 0.1 2.0 11 11
- 0.1128 0 1 cbr 50 ------- 0 0.1 2.0 116 116
+ 0.1128 0 1 cbr 50 ------- 0 0.1 2.0 128 128
r 0.112867 0 1 cbr 50 ------- 0 0.1 2.0 106 106
+ 0.112867 1 2 cbr 50 ------- 0 0.1 2.0 106 106
- 0.112867 1 2 cbr 50 ------- 0 0.1 2.0 106 106
r 0.112867 1 2 cbr 50 ------- 0 0.1 2.0 12 12
+ 0.1129 0 1 cbr 50 ------- 0 0.1 2.0 129 129
d 0.1129 0 1 cbr 50 ------- 0 0.1 2.0 129 129
- 0.112933 0 1 cbr 50 ------- 0 0.1 2.0 118 118
r 0.113 0 1 cbr 50 ------- 0 0.1 2.0 107 107
+ 0.113 1 2 cbr 50 ------- 0 0.1 2.0 107 107
- 0.113 1 2 cbr 50 ------- 0 0.1 2.0 107 107
r 0.113 1 2 cbr 50 ------- 0 0.1 2.0 13 13
+ 0.113 0 1 cbr 50 ------- 0 0.1 2.0 130 130
- 0.113067 0 1 cbr 50 ------- 0 0.1 2.0 119 119
+ 0.1131 0 1 cbr 50 ------- 0 0.1 2.0 131 131
r 0.113133 0 1 cbr 50 ------- 0 0.1 2.0 108 108
+ 0.113133 1 2 cbr 50 ------- 0 0.1 2.0 108 108
- 0.113133 1 2 cbr 50 ------- 0 0.1 2.0 108 108
r 0.113133 1 2 cbr 50 ------- 0 0.1 2.0 14 14
- 0.1132 0 1 cbr 50 ------- 0 0.1 2.0 120 120
+ 0.1132 0 1 cbr 50 ------- 0 0.1 2.0 132 132
r 0.113267 0 1 cbr 50 ------- 0 0.1 2.0 110 110
+ 0.113267 1 2 cbr 50 ------- 0 0.1 2.0 110 110
- 0.113267 1 2 cbr 50 ------- 0 0.1 2.0 110 110
r 0.113267 1 2 cbr 50 ------- 0 0.1 2.0 15 15
+ 0.1133 0 1 cbr 50 ------- 0 0.1 2.0 133 133
d 0.1133 0 1 cbr 50 ------- 0 0.1 2.0 133 133
- 0.113333 0 1 cbr 50 ------- 0 0.1 2.0 122 122
r 0.1134 0 1 cbr 50 ------- 0 0.1 2.0 111 111
+ 0.1134 1 2 cbr 50 ------- 0 0.1 2.0 111 111
- 0.1134 1 2 cbr 50 ------- 0 0.1 2.0 111 111
r 0.1134 1 2 cbr 50 ------- 0 0.1 2.0 16 16
+ 0.1134 0 1 cbr 50 ------- 0 0.1 2.0 134 134
- 0.113467 0 1 cbr 50 ------- 0 0.1 2.0 123 123
+ 0.1135 0 1 cbr 50 ------- 0 0.1 2.0 135 135
r 0.113533 0 1 cbr 50 ------- 0 0.1 2.0 112 112
+ 0.113533 1 2 cbr 50 ------- 0 0.1 2.0 112 112
- 0.113533 1 2 cbr 50 ------- 0 0.1 2.0 112 112
r 0.113533 1 2 cbr 50 ------- 0 0.1 2.0 17 17
- 0.1136 0 1 cbr 50 ------- 0 0.1 2.0 124 124
+ 0.1136 0 1 cbr 50 ------- 0 0.1 2.0 136 136
r 0.113667 0 1 cbr 50 ------- 0 0.1 2.0 114 114
+ 0.113667 1 2 cbr 50 ------- 0 0.1 2.0 114 114
- 0.113667 1 2 cbr 50 ------- 0 0.1 2.0 114 114
r 0.113667 1 2 cbr 50 ------- 0 0.1 2.0 18 18
+ 0.1137 0 1 cbr 50 ------- 0 0.1 2.0 137 137
d 0.1137 0 1 cbr 50 ------- 0 0.1 2.0 137 137
- 0.113733 0 1 cbr 50 ------- 0 0.1 2.0 126 126
r 0.1138 0 1 cbr 50 ------- 0 0.1 2.0 115 115
+ 0.1138 1 2 cbr 50 ------- 0 0.1 2.0 115 115
- 0.1138 1 2 cbr 50 ------- 0 0.1 2.0 115 115
r 0.1138 1 2 cbr 50 ------- 0 0.1 2.0 19 19
+ 0.1138 0 1 cbr 50 ------- 0 0.1 2.0 138 138
- 0.113867 0 1 cbr 50 ------- 0 0.1 2.0 127 127
+ 0.1139 0 1 cbr 50 ------- 0 0.1 2.0 139 139
r 0.113933 0 1 cbr 50 ------- 0 0.1 2.0 116 116
+ 0.113933 1 2 cbr 50 ------- 0 0.1 2.0 116 116
- 0.113933 1 2 cbr 50 ------- 0 0.1 2.0 116 116
r 0.113933 1 2 cbr 50 ------- 0 0.1 2.0 20 20
- 0.114 0 1 cbr 50 ------- 0 0.1 2.0 128 128
+ 0.114 0 1 cbr 50 ------- 0 0.1 2.0 140 140
r 0.114067 0 1 cbr 50 ------- 0 0.1 2.0 118 118
+ 0.114067 1 2 cbr 50 ------- 0 0.1 2.0 118 118
- 0.114067 1 2 cbr 50 ------- 0 0.1 2.0 118 118
r 0.114067 1 2 cbr 50 ------- 0 0.1 2.0 21 21
+ 0.1141 0 1 cbr 50 ------- 0 0.1 2.0 141 141
d 0.1141 0 1 cbr 50 ------- 0 0.1 2.0 141 141
- 0.114133 0 1 cbr 50 ------- 0 0.1 2.0 130 130
r 0.1142 0 1 cbr 50 ------- 0 0.1 2.0 119 119
+ 0.1142 1 2 cbr 50 ------- 0 0.1 2.0 119 119
- 0.1142 1 2 cbr 50 ------- 0 0.1 2.0 119 119
r 0.1142 1 2 cbr 50 ------- 0 0.1 2.0 22 22
+ 0.1142 0 1 cbr 50 ------- 0 0.1 2.0 142 142
- 0.114267 0 1 cbr 50 ------- 0 0.1 2.0 131 131
+ 0.1143 0 1 cbr 50 ------- 0 0.1 2.0 143 143
r 0.114333 0 1 cbr 50 ------- 0 0.1 2.0 120 120
+ 0.114333 1 2 cbr 50 ------- 0 0.1 2.0 120 120
- 0.114333 1 2 cbr 50 ------- 0 0.1 2.0 120 120
r 0.114333 1 2 cbr 50 ------- 0 0.1 2.0 23 23
- 0.1144 0 1 cbr 50 ------- 0 0.1 2.0 132 132
+ 0.1144 0 1 cbr 50 ------- 0 0.1 2.0 144 144
r 0.114467 0 1 cbr 50 ------- 0 0.1 2.0 122 122
+ 0.114467 1 2 cbr 50 ------- 0 0.1 2.0 122 122
- 0.114467 1 2 cbr 50 ------- 0 0.1 2.0 122 122
r 0.114467 1 2 cbr 50 ------- 0 0.1 2.0 24 24
+ 0.1145 0 1 cbr 50 ------- 0 0.1 2.0 145 145
d 0.1145 0 1 cbr 50 ------- 0 0.1 2.0 145 145
- 0.114533 0 1 cbr 50 ------- 0 0.1 2.0 134 134
r 0.1146 0 1 cbr 50 ------- 0 0.1 2.0 123 123
+ 0.1146 1 2 cbr 50 ------- 0 0.1 2.0 123 123
- 0.1146 1 2 cbr 50 ------- 0 0.1 2.0 123 123
r 0.1146 1 2 cbr 50 ------- 0 0.1 2.0 25 25
+ 0.1146 0 1 cbr 50 ------- 0 0.1 2.0 146 146
- 0.114667 0 1 cbr 50 ------- 0 0.1 2.0 135 135
+ 0.1147 0 1 cbr 50 ------- 0 0.1 2.0 147 147
r 0.114733 0 1 cbr 50 ------- 0 0.1 2.0 124 124
+ 0.114733 1 2 cbr 50 ------- 0 0.1 2.0 124 124
- 0.114733 1 2 cbr 50 ------- 0 0.1 2.0 124 124
r 0.114733 1 2 cbr 50 ------- 0 0.1 2.0 26 26
- 0.1148 0 1 cbr 50 ------- 0 0.1 2.0 136 136
+ 0.1148 0 1 cbr 50 ------- 0 0.1 2.0 148 148
r 0.114867 0 1 cbr 50 ------- 0 0.1 2.0 126 126
+ 0.114867 1 2 cbr 50 ------- 0 0.1 2.0 126 126
- 0.114867 1 2 cbr 50 ------- 0 0.1 2.0 126 126
r 0.114867 1 2 cbr 50 ------- 0 0.1 2.0 27 27
+ 0.1149 0 1 cbr 50 ------- 0 0.1 2.0 149 149
d 0.1149 0 1 cbr 50 ------- 0 0.1 2.0 149 149
- 0.114933 0 1 cbr 50 ------- 0 0.1 2.0 138 138
r 0.115 0 1 cbr 50 ------- 0 0.1 2.0 127 127
+ 0.115 1 2 cbr 50 ------- 0 0.1 2.0 127 127
- 0.115 1 2 cbr 50 ------- 0 0.1 2.0 127 127
r 0.115 1 2 cbr 50 ------- 0 0.1 2.0 28 28
+ 0.115 0 1 cbr 50 ------- 0 0.1 2.0 150 150
- 0.115067 0 1 cbr 50 ------- 0 0.1 2.0 139 139
+ 0.1151 0 1 cbr 50 ------- 0 0.1 2.0 151 151
r 0.115133 0 1 cbr 50 ------- 0 0.1 2.0 128 128
+ 0.115133 1 2 cbr 50 ------- 0 0.1 2.0 128 128
- 0.115133 1 2 cbr 50 ------- 0 0.1 2.0 128 128
r 0.115133 1 2 cbr 50 ------- 0 0.1 2.0 29 29
- 0.1152 0 1 cbr 50 ------- 0 0.1 2.0 140 140
+ 0.1152 0 1 cbr 50 ------- 0 0.1 2.0 152 152
r 0.115267 0 1 cbr 50 ------- 0 0.1 2.0 130 130
+ 0.115267 1 2 cbr 50 ------- 0 0.1 2.0 130 130
- 0.115267 1 2 cbr 50 ------- 0 0.1 2.0 130 130
r 0.115267 1 2 cbr 50 ------- 0 0.1 2.0 30 30
+ 0.1153 0 1 cbr 50 ------- 0 0.1 2.0 153 153
d 0.1153 0 1 cbr 50 ------- 0 0.1 2.0 153 153
- 0.115333 0 1 cbr 50 ------- 0 0.1 2.0 142 142
r 0.1154 0 1 cbr 50 ------- 0 0.1 2.0 131 131
+ 0.1154 1 2 cbr 50 ------- 0 0.1 2.0 131 131
- 0.1154 1 2 cbr 50 ------- 0 0.1 2.0 131 131
r 0.1154 1 2 cbr 50 ------- 0 0.1 2.0 31 31
+ 0.1154 0 1 cbr 50 ------- 0 0.1 2.0 154 154
- 0.115467 0 1 cbr 50 ------- 0 0.1 2.0 143 143
+ 0.1155 0 1 cbr 50 ------- 0 0.1 2.0 155 155
r 0.115533 0 1 cbr 50 ------- 0 0.1 2.0 132 132
+ 0.115533 1 2 cbr 50 ------- 0 0.1 2.0 132 132
- 0.115533 1 2 cbr 50 ------- 0 0.1 2.0 132 132
r 0.115533 1 2 cbr 50 ------- 0 0.1 2.0 32 32