+ 0.1 0 1 cbr 500 ------- 0 0.0 2.0 0 0
- 0.1 0 1 cbr 500 ------- 0 0.0 2.0 0 0
+ 0.105 0 1 cbr 500 ------- 0 0.0 2.0 1 1
- 0.105 0 1 cbr 500 ------- 0 0.0 2.0 1 1
+ 0.11 0 1 cbr 500 ------- 0 0.0 2.0 2 2
- 0.11 0 1 cbr 500 ------- 0 0.0 2.0 2 2
+ 0.115 0 1 cbr 500 ------- 0 0.0 2.0 3 3
- 0.115 0 1 cbr 500 ------- 0 0.0 2.0 3 3
+ 0.12 0 1 cbr 500 ------- 0 0.0 2.0 4 4
- 0.12 0 1 cbr 500 ------- 0 0.0 2.0 4 4
+ 0.125 0 1 cbr 500 ------- 0 0.0 2.0 5 5
- 0.125 0 1 cbr 500 ------- 0 0.0 2.0 5 5
+ 0.13 0 1 cbr 500 ------- 0 0.0 2.0 6 6
- 0.13 0 1 cbr 500 ------- 0 0.0 2.0 6 6
+ 0.135 0 1 cbr 500 ------- 0 0.0 2.0 7 7
- 0.135 0 1 cbr 500 ------- 0 0.0 2.0 7 7
+ 0.14 0 1 cbr 500 ------- 0 0.0 2.0 8 8
- 0.14 0 1 cbr 500 ------- 0 0.0 2.0 8 8
+ 0.145 0 1 cbr 500 ------- 0 0.0 2.0 9 9
- 0.145 0 1 cbr 500 ------- 0 0.0 2.0 9 9
+ 0.15 0 1 cbr 500 ------- 0 0.0 2.0 10 10
- 0.15 0 1 cbr 500 ------- 0 0.0 2.0 10 10
+ 0.155 0 1 cbr 500 ------- 0 0.0 2.0 11 11
- 0.155 0 1 cbr 500 ------- 0 0.0 2.0 11 11
+ 0.16 0 1 cbr 500 ------- 0 0.0 2.0 12 12
- 0.16 0 1 cbr 500 ------- 0 0.0 2.0 12 12
+ 0.165 0 1 cbr 500 ------- 0 0.0 2.0 13 13
- 0.165 0 1 cbr 500 ------- 0 0.0 2.0 13 13
+ 0.17 0 1 cbr 500 ------- 0 0.0 2.0 14 14
- 0.17 0 1 cbr 500 ------- 0 0.0 2.0 14 14
+ 0.175 0 1 cbr 500 ------- 0 0.0 2.0 15 15
- 0.175 0 1 cbr 500 ------- 0 0.0 2.0 15 15
+ 0.18 0 1 cbr 500 ------- 0 0.0 2.0 16 16
- 0.18 0 1 cbr 500 ------- 0 0.0 2.0 16 16
+ 0.185 0 1 cbr 500 ------- 0 0.0 2.0 17 17
- 0.185 0 1 cbr 500 ------- 0 0.0 2.0 17 17
+ 0.19 0 1 cbr 500 ------- 0 0.0 2.0 18 18
- 0.19 0 1 cbr 500 ------- 0 0.0 2.0 18 18
+ 0.195 0 1 cbr 500 ------- 0 0.0 2.0 19 19
- 0.195 0 1 cbr 500 ------- 0 0.0 2.0 19 19
+ 0.2 0 1 cbr 500 ------- 0 0.0 2.0 20 20
- 0.2 0 1 cbr 500 ------- 0 0.0 2.0 20 20
+ 0.205 0 1 cbr 500 ------- 0 0.0 2.0 21 21
- 0.205 0 1 cbr 500 ------- 0 0.0 2.0 21 21
+ 0.21 0 1 cbr 500 ------- 0 0.0 2.0 22 22
- 0.21 0 1 cbr 500 ------- 0 0.0 2.0 22 22
+ 0.215 0 1 cbr 500 ------- 0 0.0 2.0 23 23
- 0.215 0 1 cbr 500 ------- 0 0.0 2.0 23 23
+ 0.22 0 1 cbr 500 ------- 0 0.0 2.0 24 24
- 0.22 0 1 cbr 500 ------- 0 0.0 2.0 24 24
+ 0.225 0 1 cbr 500 ------- 0 0.0 2.0 25 25
- 0.225 0 1 cbr 500 ------- 0 0.0 2.0 25 25
+ 0.23 0 1 cbr 500 ------- 0 0.0 2.0 26 26
- 0.23 0 1 cbr 500 ------- 0 0.0 2.0 26 26
+ 0.235 0 1 cbr 500 ------- 0 0.0 2.0 27 27
- 0.235 0 1 cbr 500 ------- 0 0.0 2.0 27 27
+ 0.24 0 1 cbr 500 ------- 0 0.0 2.0 28 28
- 0.24 0 1 cbr 500 ------- 0 0.0 2.0 28 28
+ 0.245 0 1 cbr 500 ------- 0 0.0 2.0 29 29
- 0.245 0 1 cbr 500 ------- 0 0.0 2.0 29 29
+ 0.25 0 1 cbr 500 ------- 0 0.0 2.0 30 30
- 0.25 0 1 cbr 500 ------- 0 0.0 2.0 30 30
+ 0.255 0 1 cbr 500 ------- 0 0.0 2.0 31 31
- 0.255 0 1 cbr 500 ------- 0 0.0 2.0 31 31
+ 0.26 0 1 cbr 500 ------- 0 0.0 2.0 32 32
- 0.26 0 1 cbr 500 ------- 0 0.0 2.0 32 32
+ 0.265 0 1 cbr 500 ------- 0 0.0 2.0 33 33
- 0.265 0 1 cbr 500 ------- 0 0.0 2.0 33 33
+ 0.27 0 1 cbr 500 ------- 0 0.0 2.0 34 34
- 0.27 0 1 cbr 500 ------- 0 0.0 2.0 34 34
+ 0.275 0 1 cbr 500 ------- 0 0.0 2.0 35 35
- 0.275 0 1 cbr 500 ------- 0 0.0 2.0 35 35
+ 0.28 0 1 cbr 500 ------- 0 0.0 2.0 36 36
- 0.28 0 1 cbr 500 ------- 0 0.0 2.0 36 36
+ 0.285 0 1 cbr 500 ------- 0 0.0 2.0 37 37
- 0.285 0 1 cbr 500 ------- 0 0.0 2.0 37 37
+ 0.29 0 1 cbr 500 ------- 0 0.0 2.0 38 38
- 0.29 0 1 cbr 500 ------- 0 0.0 2.0 38 38
+ 0.295 0 1 cbr 500 ------- 0 0.0 2.0 39 39
- 0.295 0 1 cbr 500 ------- 0 0.0 2.0 39 39
+ 0.3 0 1 cbr 500 ------- 0 0.0 2.0 40 40
- 0.3 0 1 cbr 500 ------- 0 0.0 2.0 40 40
+ 0.305 0 1 cbr 500 ------- 0 0.0 2.0 41 41
- 0.305 0 1 cbr 500 ------- 0 0.0 2.0 41 41
+ 0.31 0 1 cbr 500 ------- 0 0.0 2.0 42 42
- 0.31 0 1 cbr 500 ------- 0 0.0 2.0 42 42
+ 0.315 0 1 cbr 500 ------- 0 0.0 2.0 43 43
- 0.315 0 1 cbr 500 ------- 0 0.0 2.0 43 43
+ 0.32 0 1 cbr 500 ------- 0 0.0 2.0 44 44
- 0.32 0 1 cbr 500 ------- 0 0.0 2.0 44 44
+ 0.325 0 1 cbr 500 ------- 0 0.0 2.0 45 45
- 0.325 0 1 cbr 500 ------- 0 0.0 2.0 45 45
+ 0.33 0 1 cbr 500 ------- 0 0.0 2.0 46 46
- 0.33 0 1 cbr 500 ------- 0 0.0 2.0 46 46
+ 0.335 0 1 cbr 500 ------- 0 0.0 2.0 47 47
- 0.335 0 1 cbr 500 ------- 0 0.0 2.0 47 47
+ 0.34 0 1 cbr 500 ------- 0 0.0 2.0 48 48
- 0.34 0 1 cbr 500 ------- 0 0.0 2.0 48 48
+ 0.345 0 1 cbr 500 ------- 0 0.0 2.0 49 49
- 0.345 0 1 cbr 500 ------- 0 0.0 2.0 49 49
+ 0.35 0 1 cbr 500 ------- 0 0.0 2.0 50 50
- 0.35 0 1 cbr 500 ------- 0 0.0 2.0 50 50
+ 0.355 0 1 cbr 500 ------- 0 0.0 2.0 51 51
- 0.355 0 1 cbr 500 ------- 0 0.0 2.0 51 51
+ 0.36 0 1 cbr 500 ------- 0 0.0 2.0 52 52
- 0.36 0 1 cbr 500 ------- 0 0.0 2.0 52 52
+ 0.365 0 1 cbr 500 ------- 0 0.0 2.0 53 53
- 0.365 0 1 cbr 500 ------- 0 0.0 2.0 53 53
+ 0.37 0 1 cbr 500 ------- 0 0.0 2.0 54 54
- 0.37 0 1 cbr 500 ------- 0 0.0 2.0 54 54
+ 0.375 0 1 cbr 500 ------- 0 0.0 2.0 55 55
- 0.375 0 1 cbr 500 ------- 0 0.0 2.0 55 55
+ 0.38 0 1 cbr 500 ------- 0 0.0 2.0 56 56
- 0.38 0 1 cbr 500 ------- 0 0.0 2.0 56 56
+ 0.385 0 1 cbr 500 ------- 0 0.0 2.0 57 57
- 0.385 0 1 cbr 500 ------- 0 0.0 2.0 57 57
+ 0.39 0 1 cbr 500 ------- 0 0.0 2.0 58 58
- 0.39 0 1 cbr 500 ------- 0 0.0 2.0 58 58
+ 0.395 0 1 cbr 500 ------- 0 0.0 2.0 59 59
- 0.395 0 1 cbr 500 ------- 0 0.0 2.0 59 59
+ 0.4 0 1 cbr 500 ------- 0 0.0 2.0 60 60
- 0.4 0 1 cbr 500 ------- 0 0.0 2.0 60 60
r 0.4004 0 1 cbr 500 ------- 0 0.0 2.0 0 0
+ 0.4004 1 2 cbr 500 ------- 0 0.0 2.0 0 0
- 0.4004 1 2 cbr 500 ------- 0 0.0 2.0 0 0
+ 0.405 0 1 cbr 500 ------- 0 0.0 2.0 61 61
- 0.405 0 1 cbr 500 ------- 0 0.0 2.0 61 61
r 0.4054 0 1 cbr 500 ------- 0 0.0 2.0 1 1
+ 0.4054 1 2 cbr 500 ------- 0 0.0 2.0 1 1
- 0.4054 1 2 cbr 500 ------- 0 0.0 2.0 1 1
+ 0.41 0 1 cbr 500 ------- 0 0.0 2.0 62 62
- 0.41 0 1 cbr 500 ------- 0 0.0 2.0 62 62
r 0.4104 0 1 cbr 500 ------- 0 0.0 2.0 2 2
+ 0.4104 1 2 cbr 500 ------- 0 0.0 2.0 2 2
- 0.4104 1 2 cbr 500 ------- 0 0.0 2.0 2 2
+ 0.415 0 1 cbr 500 ------- 0 0.0 2.0 63 63
- 0.415 0 1 cbr 500 ------- 0 0.0 2.0 63 63
r 0.4154 0 1 cbr 500 ------- 0 0.0 2.0 3 3
+ 0.4154 1 2 cbr 500 ------- 0 0.0 2.0 3 3
- 0.4154 1 2 cbr 500 ------- 0 0.0 2.0 3 3
+ 0.42 0 1 cbr 500 ------- 0 0.0 2.0 64 64
- 0.42 0 1 cbr 500 ------- 0 0.0 2.0 64 64
r 0.4204 0 1 cbr 500 ------- 0 0.0 2.0 4 4
+ 0.4204 1 2 cbr 500 ------- 0 0.0 2.0 4 4
- 0.4204 1 2 cbr 500 ------- 0 0.0 2.0 4 4
+ 0.425 0 1 cbr 500 ------- 0 0.0 2.0 65 65
- 0.425 0 1 cbr 500 ------- 0 0.0 2.0 65 65
r 0.4254 0 1 cbr 500 ------- 0 0.0 2.0 5 5
+ 0.4254 1 2 cbr 500 ------- 0 0.0 2.0 5 5
- 0.4254 1 2 cbr 500 ------- 0 0.0 2.0 5 5
+ 0.43 0 1 cbr 500 ------- 0 0.0 2.0 66 66
- 0.43 0 1 cbr 500 ------- 0 0.0 2.0 66 66
r 0.4304 0 1 cbr 500 ------- 0 0.0 2.0 6 6
+ 0.4304 1 2 cbr 500 ------- 0 0.0 2.0 6 6
- 0.4304 1 2 cbr 500 ------- 0 0.0 2.0 6 6
+ 0.435 0 1 cbr 500 ------- 0 0.0 2.0 67 67
- 0.435 0 1 cbr 500 ------- 0 0.0 2.0 67 67
r 0.4354 0 1 cbr 500 ------- 0 0.0 2.0 7 7
+ 0.4354 1 2 cbr 500 ------- 0 0.0 2.0 7 7
- 0.4354 1 2 cbr 500 ------- 0 0.0 2.0 7 7
+ 0.44 0 1 cbr 500 ------- 0 0.0 2.0 68 68
- 0.44 0 1 cbr 500 ------- 0 0.0 2.0 68 68
r 0.4404 0 1 cbr 500 ------- 0 0.0 2.0 8 8
+ 0.4404 1 2 cbr 500 ------- 0 0.0 2.0 8 8
- 0.4404 1 2 cbr 500 ------- 0 0.0 2.0 8 8
+ 0.445 0 1 cbr 500 ------- 0 0.0 2.0 69 69
- 0.445 0 1 cbr 500 ------- 0 0.0 2.0 69 69
r 0.4454 0 1 cbr 500 ------- 0 0.0 2.0 9 9
+ 0.4454 1 2 cbr 500 ------- 0 0.0 2.0 9 9
- 0.4454 1 2 cbr 500 ------- 0 0.0 2.0 9 9
+ 0.45 0 1 cbr 500 ------- 0 0.0 2.0 70 70
- 0.45 0 1 cbr 500 ------- 0 0.0 2.0 70 70
r 0.4504 0 1 cbr 500 ------- 0 0.0 2.0 10 10
+ 0.4504 1 2 cbr 500 ------- 0 0.0 2.0 10 10
- 0.4504 1 2 cbr 500 ------- 0 0.0 2.0 10 10
+ 0.455 0 1 cbr 500 ------- 0 0.0 2.0 71 71
- 0.455 0 1 cbr 500 ------- 0 0.0 2.0 71 71
r 0.4554 0 1 cbr 500 ------- 0 0.0 2.0 11 11
+ 0.4554 1 2 cbr 500 ------- 0 0.0 2.0 11 11
- 0.4554 1 2 cbr 500 ------- 0 0.0 2.0 11 11
+ 0.46 0 1 cbr 500 ------- 0 0.0 2.0 72 72
- 0.46 0 1 cbr 500 ------- 0 0.0 2.0 72 72
r 0.4604 0 1 cbr 500 ------- 0 0.0 2.0 12 12
+ 0.4604 1 2 cbr 500 ------- 0 0.0 2.0 12 12
- 0.4604 1 2 cbr 500 ------- 0 0.0 2.0 12 12
+ 0.465 0 1 cbr 500 ------- 0 0.0 2.0 73 73
- 0.465 0 1 cbr 500 ------- 0 0.0 2.0 73 73
r 0.4654 0 1 cbr 500 ------- 0 0.0 2.0 13 13
+ 0.4654 1 2 cbr 500 ------- 0 0.0 2.0 13 13
- 0.4654 1 2 cbr 500 ------- 0 0.0 2.0 13 13
+ 0.47 0 1 cbr 500 ------- 0 0.0 2.0 74 74
- 0.47 0 1 cbr 500 ------- 0 0.0 2.0 74 74
r 0.4704 0 1 cbr 500 ------- 0 0.0 2.0 14 14
+ 0.4704 1 2 cbr 500 ------- 0 0.0 2.0 14 14
- 0.4704 1 2 cbr 500 ------- 0 0.0 2.0 14 14
+ 0.475 0 1 cbr 500 ------- 0 0.0 2.0 75 75
- 0.475 0 1 cbr 500 ------- 0 0.0 2.0 75 75
r 0.4754 0 1 cbr 500 ------- 0 0.0 2.0 15 15
+ 0.4754 1 2 cbr 500 ------- 0 0.0 2.0 15 15
- 0.4754 1 2 cbr 500 ------- 0 0.0 2.0 15 15
+ 0.48 0 1 cbr 500 ------- 0 0.0 2.0 76 76
- 0.48 0 1 cbr 500 ------- 0 0.0 2.0 76 76
r 0.4804 0 1 cbr 500 ------- 0 0.0 2.0 16 16
+ 0.4804 1 2 cbr 500 ------- 0 0.0 2.0 16 16
- 0.4804 1 2 cbr 500 ------- 0 0.0 2.0 16 16
+ 0.485 0 1 cbr 500 ------- 0 0.0 2.0 77 77
- 0.485 0 1 cbr 500 ------- 0 0.0 2.0 77 77
r 0.4854 0 1 cbr 500 ------- 0 0.0 2.0 17 17
+ 0.4854 1 2 cbr 500 ------- 0 0.0 2.0 17 17
- 0.4854 1 2 cbr 500 ------- 0 0.0 2.0 17 17
+ 0.49 0 1 cbr 500 ------- 0 0.0 2.0 78 78
- 0.49 0 1 cbr 500 ------- 0 0.0 2.0 78 78
r 0.4904 0 1 cbr 500 ------- 0 0.0 2.0 18 18
+ 0.4904 1 2 cbr 500 ------- 0 0.0 2.0 18 18
- 0.4904 1 2 cbr 500 ------- 0 0.0 2.0 18 18
+ 0.495 0 1 cbr 500 ------- 0 0.0 2.0 79 79
- 0.495 0 1 cbr 500 ------- 0 0.0 2.0 79 79
r 0.4954 0 1 cbr 500 ------- 0 0.0 2.0 19 19
+ 0.4954 1 2 cbr 500 ------- 0 0.0 2.0 19 19
- 0.4954 1 2 cbr 500 ------- 0 0.0 2.0 19 19
+ 0.5 0 1 cbr 500 ------- 0 0.0 2.0 80 80
- 0.5 0 1 cbr 500 ------- 0 0.0 2.0 80 80
r 0.5004 0 1 cbr 500 ------- 0 0.0 2.0 20 20
+ 0.5004 1 2 cbr 500 ------- 0 0.0 2.0 20 20
- 0.5004 1 2 cbr 500 ------- 0 0.0 2.0 20 20
+ 0.505 0 1 cbr 500 ------- 0 0.0 2.0 81 81
- 0.505 0 1 cbr 500 ------- 0 0.0 2.0 81 81
r 0.5054 0 1 cbr 500 ------- 0 0.0 2.0 21 21
+ 0.5054 1 2 cbr 500 ------- 0 0.0 2.0 21 21
- 0.5054 1 2 cbr 500 ------- 0 0.0 2.0 21 21
+ 0.51 0 1 cbr 500 ------- 0 0.0 2.0 82 82
- 0.51 0 1 cbr 500 ------- 0 0.0 2.0 82 82
r 0.5104 0 1 cbr 500 ------- 0 0.0 2.0 22 22
+ 0.5104 1 2 cbr 500 ------- 0 0.0 2.0 22 22
- 0.5104 1 2 cbr 500 ------- 0 0.0 2.0 22 22
+ 0.515 0 1 cbr 500 ------- 0 0.0 2.0 83 83
- 0.515 0 1 cbr 500 ------- 0 0.0 2.0 83 83
r 0.5154 0 1 cbr 500 ------- 0 0.0 2.0 23 23
+ 0.5154 1 2 cbr 500 ------- 0 0.0 2.0 23 23
- 0.5154 1 2 cbr 500 ------- 0 0.0 2.0 23 23
+ 0.52 0 1 cbr 500 ------- 0 0.0 2.0 84 84
- 0.52 0 1 cbr 500 ------- 0 0.0 2.0 84 84
r 0.5204 0 1 cbr 500 ------- 0 0.0 2.0 24 24
+ 0.5204 1 2 cbr 500 ------- 0 0.0 2.0 24 24
- 0.5204 1 2 cbr 500 ------- 0 0.0 2.0 24 24
+ 0.525 0 1 cbr 500 ------- 0 0.0 2.0 85 85
- 0.525 0 1 cbr 500 ------- 0 0.0 2.0 85 85
r 0.5254 0 1 cbr 500 ------- 0 0.0 2.0 25 25
+ 0.5254 1 2 cbr 500 ------- 0 0.0 2.0 25 25
- 0.5254 1 2 cbr 500 ------- 0 0.0 2.0 25 25
+ 0.53 0 1 cbr 500 ------- 0 0.0 2.0 86 86
- 0.53 0 1 cbr 500 ------- 0 0.0 2.0 86 86
r 0.5304 0 1 cbr 500 ------- 0 0.0 2.0 26 26
+ 0.5304 1 2 cbr 500 ------- 0 0.0 2.0 26 26
- 0.5304 1 2 cbr 500 ------- 0 0.0 2.0 26 26
+ 0.535 0 1 cbr 500 ------- 0 0.0 2.0 87 87
- 0.535 0 1 cbr 500 ------- 0 0.0 2.0 87 87
r 0.5354 0 1 cbr 500 ------- 0 0.0 2.0 27 27
+ 0.5354 1 2 cbr 500 ------- 0 0.0 2.0 27 27
- 0.5354 1 2 cbr 500 ------- 0 0.0 2.0 27 27
+ 0.54 0 1 cbr 500 ------- 0 0.0 2.0 88 88
- 0.54 0 1 cbr 500 ------- 0 0.0 2.0 88 88
r 0.5404 0 1 cbr 500 ------- 0 0.0 2.0 28 28
+ 0.5404 1 2 cbr 500 ------- 0 0.0 2.0 28 28
- 0.5404 1 2 cbr 500 ------- 0 0.0 2.0 28 28
+ 0.545 0 1 cbr 500 ------- 0 0.0 2.0 89 89
- 0.545 0 1 cbr 500 ------- 0 0.0 2.0 89 89
r 0.5454 0 1 cbr 500 ------- 0 0.0 2.0 29 29
+ 0.5454 1 2 cbr 500 ------- 0 0.0 2.0 29 29
- 0.5454 1 2 cbr 500 ------- 0 0.0 2.0 29 29
+ 0.55 0 1 cbr 500 ------- 0 0.0 2.0 90 90
- 0.55 0 1 cbr 500 ------- 0 0.0 2.0 90 90
r 0.5504 0 1 cbr 500 ------- 0 0.0 2.0 30 30
+ 0.5504 1 2 cbr 500 ------- 0 0.0 2.0 30 30
- 0.5504 1 2 cbr 500 ------- 0 0.0 2.0 30 30
+ 0.555 0 1 cbr 500 ------- 0 0.0 2.0 91 91
- 0.555 0 1 cbr 500 ------- 0 0.0 2.0 91 91
r 0.5554 0 1 cbr 500 ------- 0 0.0 2.0 31 31
+ 0.5554 1 2 cbr 500 ------- 0 0.0 2.0 31 31
- 0.5554 1 2 cbr 500 ------- 0 0.0 2.0 31 31
+ 0.56 0 1 cbr 500 ------- 0 0.0 2.0 92 92
- 0.56 0 1 cbr 500 ------- 0 0.0 2.0 92 92
r 0.5604 0 1 cbr 500 ------- 0 0.0 2.0 32 32
+ 0.5604 1 2 cbr 500 ------- 0 0.0 2.0 32 32
- 0.5604 1 2 cbr 500 ------- 0 0.0 2.0 32 32
+ 0.565 0 1 cbr 500 ------- 0 0.0 2.0 93 93
- 0.565 0 1 cbr 500 ------- 0 0.0 2.0 93 93
r 0.5654 0 1 cbr 500 ------- 0 0.0 2.0 33 33
+ 0.5654 1 2 cbr 500 ------- 0 0.0 2.0 33 33
- 0.5654 1 2 cbr 500 ------- 0 0.0 2.0 33 33
+ 0.57 0 1 cbr 500 ------- 0 0.0 2.0 94 94
- 0.57 0 1 cbr 500 ------- 0 0.0 2.0 94 94
r 0.5704 0 1 cbr 500 ------- 0 0.0 2.0 34 34
+ 0.5704 1 2 cbr 500 ------- 0 0.0 2.0 34 34
- 0.5704 1 2 cbr 500 ------- 0 0.0 2.0 34 34
+ 0.575 0 1 cbr 500 ------- 0 0.0 2.0 95 95
- 0.575 0 1 cbr 500 ------- 0 0.0 2.0 95 95
r 0.5754 0 1 cbr 500 ------- 0 0.0 2.0 35 35
+ 0.5754 1 2 cbr 500 ------- 0 0.0 2.0 35 35
- 0.5754 1 2 cbr 500 ------- 0 0.0 2.0 35 35
+ 0.58 0 1 cbr 500 ------- 0 0.0 2.0 96 96
- 0.58 0 1 cbr 500 ------- 0 0.0 2.0 96 96
r 0.5804 0 1 cbr 500 ------- 0 0.0 2.0 36 36
+ 0.5804 1 2 cbr 500 ------- 0 0.0 2.0 36 36
- 0.5804 1 2 cbr 500 ------- 0 0.0 2.0 36 36
+ 0.585 0 1 cbr 500 ------- 0 0.0 2.0 97 97
- 0.585 0 1 cbr 500 ------- 0 0.0 2.0 97 97
r 0.5854 0 1 cbr 500 ------- 0 0.0 2.0 37 37
+ 0.5854 1 2 cbr 500 ------- 0 0.0 2.0 37 37
- 0.5854 1 2 cbr 500 ------- 0 0.0 2.0 37 37
+ 0.59 0 1 cbr 500 ------- 0 0.0 2.0 98 98
- 0.59 0 1 cbr 500 ------- 0 0.0 2.0 98 98
r 0.5904 0 1 cbr 500 ------- 0 0.0 2.0 38 38
+ 0.5904 1 2 cbr 500 ------- 0 0.0 2.0 38 38
- 0.5904 1 2 cbr 500 ------- 0 0.0 2.0 38 38
+ 0.595 0 1 cbr 500 ------- 0 0.0 2.0 99 99
- 0.595 0 1 cbr 500 ------- 0 0.0 2.0 99 99
r 0.5954 0 1 cbr 500 ------- 0 0.0 2.0 39 39
+ 0.5954 1 2 cbr 500 ------- 0 0.0 2.0 39 39
- 0.5954 1 2 cbr 500 ------- 0 0.0 2.0 39 39
+ 0.6 0 1 cbr 500 ------- 0 0.0 2.0 100 100
- 0.6 0 1 cbr 500 ------- 0 0.0 2.0 100 100
r 0.6004 0 1 cbr 500 ------- 0 0.0 2.0 40 40
+ 0.6004 1 2 cbr 500 ------- 0 0.0 2.0 40 40
- 0.6004 1 2 cbr 500 ------- 0 0.0 2.0 40 40
+ 0.605 0 1 cbr 500 ------- 0 0.0 2.0 101 101
- 0.605 0 1 cbr 500 ------- 0 0.0 2.0 101 101
r 0.6054 0 1 cbr 500 ------- 0 0.0 2.0 41 41
+ 0.6054 1 2 cbr 500 ------- 0 0.0 2.0 41 41
- 0.6054 1 2 cbr 500 ------- 0 0.0 2.0 41 41
+ 0.61 0 1 cbr 500 ------- 0 0.0 2.0 102 102
- 0.61 0 1 cbr 500 ------- 0 0.0 2.0 102 102
r 0.6104 0 1 cbr 500 ------- 0 0.0 2.0 42 42
+ 0.6104 1 2 cbr 500 ------- 0 0.0 2.0 42 42
- 0.6104 1 2 cbr 500 ------- 0 0.0 2.0 42 42
+ 0.615 0 1 cbr 500 ------- 0 0.0 2.0 103 103
- 0.615 0 1 cbr 500 ------- 0 0.0 2.0 103 103
r 0.6154 0 1 cbr 500 ------- 0 0.0 2.0 43 43
+ 0.6154 1 2 cbr 500 ------- 0 0.0 2.0 43 43
- 0.6154 1 2 cbr 500 ------- 0 0.0 2.0 43 43
+ 0.62 0 1 cbr 500 ------- 0 0.0 2.0 104 104
- 0.62 0 1 cbr 500 ------- 0 0.0 2.0 104 104
r 0.6204 0 1 cbr 500 ------- 0 0.0 2.0 44 44
+ 0.6204 1 2 cbr 500 ------- 0 0.0 2.0 44 44
- 0.6204 1 2 cbr 500 ------- 0 0.0 2.0 44 44
+ 0.625 0 1 cbr 500 ------- 0 0.0 2.0 105 105
- 0.625 0 1 cbr 500 ------- 0 0.0 2.0 105 105
r 0.6254 0 1 cbr 500 ------- 0 0.0 2.0 45 45
+ 0.6254 1 2 cbr 500 ------- 0 0.0 2.0 45 45
- 0.6254 1 2 cbr 500 ------- 0 0.0 2.0 45 45
+ 0.63 0 1 cbr 500 ------- 0 0.0 2.0 106 106
- 0.63 0 1 cbr 500 ------- 0 0.0 2.0 106 106
r 0.6304 0 1 cbr 500 ------- 0 0.0 2.0 46 46
+ 0.6304 1 2 cbr 500 ------- 0 0.0 2.0 46 46
- 0.6304 1 2 cbr 500 ------- 0 0.0 2.0 46 46
+ 0.635 0 1 cbr 500 ------- 0 0.0 2.0 107 107
- 0.635 0 1 cbr 500 ------- 0 0.0 2.0 107 107
r 0.6354 0 1 cbr 500 ------- 0 0.0 2.0 47 47
+ 0.6354 1 2 cbr 500 ------- 0 0.0 2.0 47 47
- 0.6354 1 2 cbr 500 ------- 0 0.0 2.0 47 47
+ 0.64 0 1 cbr 500 ------- 0 0.0 2.0 108 108
- 0.64 0 1 cbr 500 ------- 0 0.0 2.0 108 108
r 0.6404 0 1 cbr 500 ------- 0 0.0 2.0 48 48
+ 0.6404 1 2 cbr 500 ------- 0 0.0 2.0 48 48
- 0.6404 1 2 cbr 500 ------- 0 0.0 2.0 48 48
+ 0.645 0 1 cbr 500 ------- 0 0.0 2.0 109 109
- 0.645 0 1 cbr 500 ------- 0 0.0 2.0 109 109
r 0.6454 0 1 cbr 500 ------- 0 0.0 2.0 49 49
+ 0.6454 1 2 cbr 500 ------- 0 0.0 2.0 49 49
- 0.6454 1 2 cbr 500 ------- 0 0.0 2.0 49 49
+ 0.65 0 1 cbr 500 ------- 0 0.0 2.0 110 110
- 0.65 0 1 cbr 500 ------- 0 0.0 2.0 110 110
r 0.6504 0 1 cbr 500 ------- 0 0.0 2.0 50 50
+ 0.6504 1 2 cbr 500 ------- 0 0.0 2.0 50 50
- 0.6504 1 2 cbr 500 ------- 0 0.0 2.0 50 50
+ 0.655 0 1 cbr 500 ------- 0 0.0 2.0 111 111
- 0.655 0 1 cbr 500 ------- 0 0.0 2.0 111 111
r 0.6554 0 1 cbr 500 ------- 0 0.0 2.0 51 51
+ 0.6554 1 2 cbr 500 ------- 0 0.0 2.0 51 51
- 0.6554 1 2 cbr 500 ------- 0 0.0 2.0 51 51
+ 0.66 0 1 cbr 500 ------- 0 0.0 2.0 112 112
- 0.66 0 1 cbr 500 ------- 0 0.0 2.0 112 112
r 0.6604 0 1 cbr 500 ------- 0 0.0 2.0 52 52
+ 0.6604 1 2 cbr 500 ------- 0 0.0 2.0 52 52
- 0.6604 1 2 cbr 500 ------- 0 0.0 2.0 52 52
+ 0.665 0 1 cbr 500 ------- 0 0.0 2.0 113 113
- 0.665 0 1 cbr 500 ------- 0 0.0 2.0 113 113
r 0.6654 0 1 cbr 500 ------- 0 0.0 2.0 53 53
+ 0.6654 1 2 cbr 500 ------- 0 0.0 2.0 53 53
- 0.6654 1 2 cbr 500 ------- 0 0.0 2.0 53 53
+ 0.67 0 1 cbr 500 ------- 0 0.0 2.0 114 114
- 0.67 0 1 cbr 500 ------- 0 0.0 2.0 114 114
r 0.6704 0 1 cbr 500 ------- 0 0.0 2.0 54 54
+ 0.6704 1 2 cbr 500 ------- 0 0.0 2.0 54 54
- 0.6704 1 2 cbr 500 ------- 0 0.0 2.0 54 54
+ 0.675 0 1 cbr 500 ------- 0 0.0 2.0 115 115
- 0.675 0 1 cbr 500 ------- 0 0.0 2.0 115 115
r 0.6754 0 1 cbr 500 ------- 0 0.0 2.0 55 55
+ 0.6754 1 2 cbr 500 ------- 0 0.0 2.0 55 55
- 0.6754 1 2 cbr 500 ------- 0 0.0 2.0 55 55
+ 0.68 0 1 cbr 500 ------- 0 0.0 2.0 116 116
- 0.68 0 1 cbr 500 ------- 0 0.0 2.0 116 116
r 0.6804 0 1 cbr 500 ------- 0 0.0 2.0 56 56
+ 0.6804 1 2 cbr 500 ------- 0 0.0 2.0 56 56
- 0.6804 1 2 cbr 500 ------- 0 0.0 2.0 56 56
+ 0.685 0 1 cbr 500 ------- 0 0.0 2.0 117 117
- 0.685 0 1 cbr 500 ------- 0 0.0 2.0 117 117
r 0.6854 0 1 cbr 500 ------- 0 0.0 2.0 57 57
+ 0.6854 1 2 cbr 500 ------- 0 0.0 2.0 57 57
- 0.6854 1 2 cbr 500 ------- 0 0.0 2.0 57 57
+ 0.69 0 1 cbr 500 ------- 0 0.0 2.0 118 118
- 0.69 0 1 cbr 500 ------- 0 0.0 2.0 118 118
r 0.6904 0 1 cbr 500 ------- 0 0.0 2.0 58 58
+ 0.6904 1 2 cbr 500 ------- 0 0.0 2.0 58 58
- 0.6904 1 2 cbr 500 ------- 0 0.0 2.0 58 58
+ 0.695 0 1 cbr 500 ------- 0 0.0 2.0 119 119
- 0.695 0 1 cbr 500 ------- 0 0.0 2.0 119 119
r 0.6954 0 1 cbr 500 ------- 0 0.0 2.0 59 59
+ 0.6954 1 2 cbr 500 ------- 0 0.0 2.0 59 59
- 0.6954 1 2 cbr 500 ------- 0 0.0 2.0 59 59
+ 0.7 0 1 cbr 500 ------- 0 0.0 2.0 120 120
- 0.7 0 1 cbr 500 ------- 0 0.0 2.0 120 120
r 0.7004 0 1 cbr 500 ------- 0 0.0 2.0 60 60
+ 0.7004 1 2 cbr 500 ------- 0 0.0 2.0 60 60
- 0.7004 1 2 cbr 500 ------- 0 0.0 2.0 60 60
r 0.7044 1 2 cbr 500 ------- 0 0.0 2.0 0 0
+ 0.705 0 1 cbr 500 ------- 0 0.0 2.0 121 121
- 0.705 0 1 cbr 500 ------- 0 0.0 2.0 121 121
r 0.7054 0 1 cbr 500 ------- 0 0.0 2.0 61 61
+ 0.7054 1 2 cbr 500 ------- 0 0.0 2.0 61 61
- 0.7054 1 2 cbr 500 ------- 0 0.0 2.0 61 61
r 0.7094 1 2 cbr 500 ------- 0 0.0 2.0 1 1
+ 0.71 0 1 cbr 500 ------- 0 0.0 2.0 122 122
- 0.71 0 1 cbr 500 ------- 0 0.0 2.0 122 122
r 0.7104 0 1 cbr 500 ------- 0 0.0 2.0 62 62
+ 0.7104 1 2 cbr 500 ------- 0 0.0 2.0 62 62
- 0.7104 1 2 cbr 500 ------- 0 0.0 2.0 62 62
r 0.7144 1 2 cbr 500 ------- 0 0.0 2.0 2 2
+ 0.715 0 1 cbr 500 ------- 0 0.0 2.0 123 123
- 0.715 0 1 cbr 500 ------- 0 0.0 2.0 123 123
r 0.7154 0 1 cbr 500 ------- 0 0.0 2.0 63 63
+ 0.7154 1 2 cbr 500 ------- 0 0.0 2.0 63 63
- 0.7154 1 2 cbr 500 ------- 0 0.0 2.0 63 63
r 0.7194 1 2 cbr 500 ------- 0 0.0 2.0 3 3
+ 0.72 0 1 cbr 500 ------- 0 0.0 2.0 124 124
- 0.72 0 1 cbr 500 ------- 0 0.0 2.0 124 124
r 0.7204 0 1 cbr 500 ------- 0 0.0 2.0 64 64
+ 0.7204 1 2 cbr 500 ------- 0 0.0 2.0 64 64
- 0.7204 1 2 cbr 500 ------- 0 0.0 2.0 64 64
r 0.7244 1 2 cbr 500 ------- 0 0.0 2.0 4 4
+ 0.725 0 1 cbr 500 ------- 0 0.0 2.0 125 125
- 0.725 0 1 cbr 500 ------- 0 0.0 2.0 125 125
r 0.7254 0 1 cbr 500 ------- 0 0.0 2.0 65 65
+ 0.7254 1 2 cbr 500 ------- 0 0.0 2.0 65 65
- 0.7254 1 2 cbr 500 ------- 0 0.0 2.0 65 65
r 0.7294 1 2 cbr 500 ------- 0 0.0 2.0 5 5
+ 0.73 0 1 cbr 500 ------- 0 0.0 2.0 126 126
- 0.73 0 1 cbr 500 ------- 0 0.0 2.0 126 126
r 0.7304 0 1 cbr 500 ------- 0 0.0 2.0 66 66
+ 0.7304 1 2 cbr 500 ------- 0 0.0 2.0 66 66
- 0.7304 1 2 cbr 500 ------- 0 0.0 2.0 66 66
r 0.7344 1 2 cbr 500 ------- 0 0.0 2.0 6 6
+ 0.735 0 1 cbr 500 ------- 0 0.0 2.0 127 127
- 0.735 0 1 cbr 500 ------- 0 0.0 2.0 127 127
r 0.7354 0 1 cbr 500 ------- 0 0.0 2.0 67 67
+ 0.7354 1 2 cbr 500 ------- 0 0.0 2.0 67 67
- 0.7354 1 2 cbr 500 ------- 0 0.0 2.0 67 67
r 0.7394 1 2 cbr 500 ------- 0 0.0 2.0 7 7
+ 0.74 0 1 cbr 500 ------- 0 0.0 2.0 128 128
- 0.74 0 1 cbr 500 ------- 0 0.0 2.0 128 128
r 0.7404 0 1 cbr 500 ------- 0 0.0 2.0 68 68
+ 0.7404 1 2 cbr 500 ------- 0 0.0 2.0 68 68
- 0.7404 1 2 cbr 500 ------- 0 0.0 2.0 68 68
r 0.7444 1 2 cbr 500 ------- 0 0.0 2.0 8 8
+ 0.745 0 1 cbr 500 ------- 0 0.0 2.0 129 129
- 0.745 0 1 cbr 500 ------- 0 0.0 2.0 129 129
r 0.7454 0 1 cbr 500 ------- 0 0.0 2.0 69 69
+ 0.7454 1 2 cbr 500 ------- 0 0.0 2.0 69 69
- 0.7454 1 2 cbr 500 ------- 0 0.0 2.0 69 69
r 0.7494 1 2 cbr 500 ------- 0 0.0 2.0 9 9
+ 0.75 0 1 cbr 500 ------- 0 0.0 2.0 130 130
- 0.75 0 1 cbr 500 ------- 0 0.0 2.0 130 130
r 0.7504 0 1 cbr 500 ------- 0 0.0 2.0 70 70
+ 0.7504 1 2 cbr 500 ------- 0 0.0 2.0 70 70
- 0.7504 1 2 cbr 500 ------- 0 0.0 2.0 70 70
r 0.7544 1 2 cbr 500 ------- 0 0.0 2.0 10 10
+ 0.755 0 1 cbr 500 ------- 0 0.0 2.0 131 131
- 0.755 0 1 cbr 500 ------- 0 0.0 2.0 131 131
r 0.7554 0 1 cbr 500 ------- 0 0.0 2.0 71 71
+ 0.7554 1 2 cbr 500 ------- 0 0.0 2.0 71 71
- 0.7554 1 2 cbr 500 ------- 0 0.0 2.0 71 71
r 0.7594 1 2 cbr 500 ------- 0 0.0 2.0 11 11
+ 0.76 0 1 cbr 500 ------- 0 0.0 2.0 132 132
- 0.76 0 1 cbr 500 ------- 0 0.0 2.0 132 132
r 0.7604 0 1 cbr 500 ------- 0 0.0 2.0 72 72
+ 0.7604 1 2 cbr 500 ------- 0 0.0 2.0 72 72
- 0.7604 1 2 cbr 500 ------- 0 0.0 2.0 72 72
r 0.7644 1 2 cbr 500 ------- 0 0.0 2.0 12 12
+ 0.765 0 1 cbr 500 ------- 0 0.0 2.0 133 133
- 0.765 0 1 cbr 500 ------- 0 0.0 2.0 133 133
r 0.7654 0 1 cbr 500 ------- 0 0.0 2.0 73 73
+ 0.7654 1 2 cbr 500 ------- 0 0.0 2.0 73 73
- 0.7654 1 2 cbr 500 ------- 0 0.0 2.0 73 73
r 0.7694 1 2 cbr 500 ------- 0 0.0 2.0 13 13
+ 0.77 0 1 cbr 500 ------- 0 0.0 2.0 134 134
- 0.77 0 1 cbr 500 ------- 0 0.0 2.0 134 134
r 0.7704 0 1 cbr 500 ------- 0 0.0 2.0 74 74
+ 0.7704 1 2 cbr 500 ------- 0 0.0 2.0 74 74
- 0.7704 1 2 cbr 500 ------- 0 0.0 2.0 74 74
r 0.7744 1 2 cbr 500 ------- 0 0.0 2.0 14 14
+ 0.775 0 1 cbr 500 ------- 0 0.0 2.0 135 135
- 0.775 0 1 cbr 500 ------- 0 0.0 2.0 135 135
r 0.7754 0 1 cbr 500 ------- 0 0.0 2.0 75 75
+ 0.7754 1 2 cbr 500 ------- 0 0.0 2.0 75 75
- 0.7754 1 2 cbr 500 ------- 0 0.0 2.0 75 75
r 0.7794 1 2 cbr 500 ------- 0 0.0 2.0 15 15
+ 0.78 0 1 cbr 500 ------- 0 0.0 2.0 136 136
- 0.78 0 1 cbr 500 ------- 0 0.0 2.0 136 136
r 0.7804 0 1 cbr 500 ------- 0 0.0 2.0 76 76
+ 0.7804 1 2 cbr 500 ------- 0 0.0 2.0 76 76
- 0.7804 1 2 cbr 500 ------- 0 0.0 2.0 76 76
r 0.7844 1 2 cbr 500 ------- 0 0.0 2.0 16 16
+ 0.785 0 1 cbr 500 ------- 0 0.0 2.0 137 137
- 0.785 0 1 cbr 500 ------- 0 0.0 2.0 137 137
r 0.7854 0 1 cbr 500 ------- 0 0.0 2.0 77 77
+ 0.7854 1 2 cbr 500 ------- 0 0.0 2.0 77 77
- 0.7854 1 2 cbr 500 ------- 0 0.0 2.0 77 77
r 0.7894 1 2 cbr 500 ------- 0 0.0 2.0 17 17
+ 0.79 0 1 cbr 500 ------- 0 0.0 2.0 138 138
- 0.79 0 1 cbr 500 ------- 0 0.0 2.0 138 138
r 0.7904 0 1 cbr 500 ------- 0 0.0 2.0 78 78
+ 0.7904 1 2 cbr 500 ------- 0 0.0 2.0 78 78
- 0.7904 1 2 cbr 500 ------- 0 0.0 2.0 78 78
r 0.7944 1 2 cbr 500 ------- 0 0.0 2.0 18 18
+ 0.795 0 1 cbr 500 ------- 0 0.0 2.0 139 139
- 0.795 0 1 cbr 500 ------- 0 0.0 2.0 139 139
r 0.7954 0 1 cbr 500 ------- 0 0.0 2.0 79 79
+ 0.7954 1 2 cbr 500 ------- 0 0.0 2.0 79 79
- 0.7954 1 2 cbr 500 ------- 0 0.0 2.0 79 79
r 0.7994 1 2 cbr 500 ------- 0 0.0 2.0 19 19
+ 0.8 0 1 cbr 500 ------- 0 0.0 2.0 140 140
- 0.8 0 1 cbr 500 ------- 0 0.0 2.0 140 140
r 0.8004 0 1 cbr 500 ------- 0 0.0 2.0 80 80
+ 0.8004 1 2 cbr 500 ------- 0 0.0 2.0 80 80
- 0.8004 1 2 cbr 500 ------- 0 0.0 2.0 80 80
r 0.8044 1 2 cbr 500 ------- 0 0.0 2.0 20 20
+ 0.805 0 1 cbr 500 ------- 0 0.0 2.0 141 141
- 0.805 0 1 cbr 500 ------- 0 0.0 2.0 141 141
r 0.8054 0 1 cbr 500 ------- 0 0.0 2.0 81 81
+ 0.8054 1 2 cbr 500 ------- 0 0.0 2.0 81 81
- 0.8054 1 2 cbr 500 ------- 0 0.0 2.0 81 81
r 0.8094 1 2 cbr 500 ------- 0 0.0 2.0 21 21
+ 0.81 0 1 cbr 500 ------- 0 0.0 2.0 142 142
- 0.81 0 1 cbr 500 ------- 0 0.0 2.0 142 142
r 0.8104 0 1 cbr 500 ------- 0 0.0 2.0 82 82
+ 0.8104 1 2 cbr 500 ------- 0 0.0 2.0 82 82
- 0.8104 1 2 cbr 500 ------- 0 0.0 2.0 82 82
r 0.8144 1 2 cbr 500 ------- 0 0.0 2.0 22 22
+ 0.815 0 1 cbr 500 ------- 0 0.0 2.0 143 143
- 0.815 0 1 cbr 500 ------- 0 0.0 2.0 143 143
r 0.8154 0 1 cbr 500 ------- 0 0.0 2.0 83 83
+ 0.8154 1 2 cbr 500 ------- 0 0.0 2.0 83 83
- 0.8154 1 2 cbr 500 ------- 0 0.0 2.0 83 83
r 0.8194 1 2 cbr 500 ------- 0 0.0 2.0 23 23
+ 0.82 0 1 cbr 500 ------- 0 0.0 2.0 144 144
- 0.82 0 1 cbr 500 ------- 0 0.0 2.0 144 144
r 0.8204 0 1 cbr 500 ------- 0 0.0 2.0 84 84
+ 0.8204 1 2 cbr 500 ------- 0 0.0 2.0 84 84
- 0.8204 1 2 cbr 500 ------- 0 0.0 2.0 84 84
r 0.8244 1 2 cbr 500 ------- 0 0.0 2.0 24 24
+ 0.825 0 1 cbr 500 ------- 0 0.0 2.0 145 145
- 0.825 0 1 cbr 500 ------- 0 0.0 2.0 145 145
r 0.8254 0 1 cbr 500 ------- 0 0.0 2.0 85 85
+ 0.8254 1 2 cbr 500 ------- 0 0.0 2.0 85 85
- 0.8254 1 2 cbr 500 ------- 0 0.0 2.0 85 85
r 0.8294 1 2 cbr 500 ------- 0 0.0 2.0 25 25
+ 0.83 0 1 cbr 500 ------- 0 0.0 2.0 146 146
- 0.83 0 1 cbr 500 ------- 0 0.0 2.0 146 146
r 0.8304 0 1 cbr 500 ------- 0 0.0 2.0 86 86
+ 0.8304 1 2 cbr 500 ------- 0 0.0 2.0 86 86
- 0.8304 1 2 cbr 500 ------- 0 0.0 2.0 86 86
r 0.8344 1 2 cbr 500 ------- 0 0.0 2.0 26 26
+ 0.835 0 1 cbr 500 ------- 0 0.0 2.0 147 147
- 0.835 0 1 cbr 500 ------- 0 0.0 2.0 147 147
r 0.8354 0 1 cbr 500 ------- 0 0.0 2.0 87 87
+ 0.8354 1 2 cbr 500 ------- 0 0.0 2.0 87 87
- 0.8354 1 2 cbr 500 ------- 0 0.0 2.0 87 87
r 0.8394 1 2 cbr 500 ------- 0 0.0 2.0 27 27
+ 0.84 0 1 cbr 500 ------- 0 0.0 2.0 148 148
- 0.84 0 1 cbr 500 ------- 0 0.0 2.0 148 148
r 0.8404 0 1 cbr 500 ------- 0 0.0 2.0 88 88
+ 0.8404 1 2 cbr 500 ------- 0 0.0 2.0 88 88
- 0.8404 1 2 cbr 500 ------- 0 0.0 2.0 88 88
r 0.8444 1 2 cbr 500 ------- 0 0.0 2.0 28 28
+ 0.845 0 1 cbr 500 ------- 0 0.0 2.0 149 149
- 0.845 0 1 cbr 500 ------- 0 0.0 2.0 149 149
r 0.8454 0 1 cbr 500 ------- 0 0.0 2.0 89 89
+ 0.8454 1 2 cbr 500 ------- 0 0.0 2.0 89 89
- 0.8454 1 2 cbr 500 ------- 0 0.0 2.0 89 89
r 0.8494 1 2 cbr 500 ------- 0 0.0 2.0 29 29
+ 0.85 0 1 cbr 500 ------- 0 0.0 2.0 150 150
- 0.85 0 1 cbr 500 ------- 0 0.0 2.0 150 150
r 0.8504 0 1 cbr 500 ------- 0 0.0 2.0 90 90
+ 0.8504 1 2 cbr 500 ------- 0 0.0 2.0 90 90
- 0.8504 1 2 cbr 500 ------- 0 0.0 2.0 90 90
r 0.8544 1 2 cbr 500 ------- 0 0.0 2.0 30 30
+ 0.855 0 1 cbr 500 ------- 0 0.0 2.0 151 151
- 0.855 0 1 cbr 500 ------- 0 0.0 2.0 151 151
r 0.8554 0 1 cbr 500 ------- 0 0.0 2.0 91 91
+ 0.8554 1 2 cbr 500 ------- 0 0.0 2.0 91 91
- 0.8554 1 2 cbr 500 ------- 0 0.0 2.0 91 91
r 0.8594 1 2 cbr 500 ------- 0 0.0 2.0 31 31
+ 0.86 0 1 cbr 500 ------- 0 0.0 2.0 152 152
- 0.86 0 1 cbr 500 ------- 0 0.0 2.0 152 152
r 0.8604 0 1 cbr 500 ------- 0 0.0 2.0 92 92
+ 0.8604 1 2 cbr 500 ------- 0 0.0 2.0 92 92
- 0.8604 1 2 cbr 500 ------- 0 0.0 2.0 92 92
r 0.8644 1 2 cbr 500 ------- 0 0.0 2.0 32 32
+ 0.865 0 1 cbr 500 ------- 0 0.0 2.0 153 153
- 0.865 0 1 cbr 500 ------- 0 0.0 2.0 153 153
r 0.8654 0 1 cbr 500 ------- 0 0.0 2.0 93 93
+ 0.8654 1 2 cbr 500 ------- 0 0.0 2.0 93 93
- 0.8654 1 2 cbr 500 ------- 0 0.0 2.0 93 93
r 0.8694 1 2 cbr 500 ------- 0 0.0 2.0 33 33
+ 0.87 0 1 cbr 500 ------- 0 0.0 2.0 154 154
- 0.87 0 1 cbr 500 ------- 0 0.0 2.0 154 154
r 0.8704 0 1 cbr 500 ------- 0 0.0 2.0 94 94
+ 0.8704 1 2 cbr 500 ------- 0 0.0 2.0 94 94
- 0.8704 1 2 cbr 500 ------- 0 0.0 2.0 94 94
r 0.8744 1 2 cbr 500 ------- 0 0.0 2.0 34 34
+ 0.875 0 1 cbr 500 ------- 0 0.0 2.0 155 155
- 0.875 0 1 cbr 500 ------- 0 0.0 2.0 155 155
r 0.8754 0 1 cbr 500 ------- 0 0.0 2.0 95 95
+ 0.8754 1 2 cbr 500 ------- 0 0.0 2.0 95 95
- 0.8754 1 2 cbr 500 ------- 0 0.0 2.0 95 95
r 0.8794 1 2 cbr 500 ------- 0 0.0 2.0 35 35
+ 0.88 0 1 cbr 500 ------- 0 0.0 2.0 156 156
- 0.88 0 1 cbr 500 ------- 0 0.0 2.0 156 156
r 0.8804 0 1 cbr 500 ------- 0 0.0 2.0 96 96
+ 0.8804 1 2 cbr 500 ------- 0 0.0 2.0 96 96
- 0.8804 1 2 cbr 500 ------- 0 0.0 2.0 96 96
r 0.8844 1 2 cbr 500 ------- 0 0.0 2.0 36 36
+ 0.885 0 1 cbr 500 ------- 0 0.0 2.0 157 157
- 0.885 0 1 cbr 500 ------- 0 0.0 2.0 157 157
r 0.8854 0 1 cbr 500 ------- 0 0.0 2.0 97 97
+ 0.8854 1 2 cbr 500 ------- 0 0.0 2.0 97 97
- 0.8854 1 2 cbr 500 ------- 0 0.0 2.0 97 97
r 0.8894 1 2 cbr 500 ------- 0 0.0 2.0 37 37
+ 0.89 0 1 cbr 500 ------- 0 0.0 2.0 158 158
- 0.89 0 1 cbr 500 ------- 0 0.0 2.0 158 158
r 0.8904 0 1 cbr 500 ------- 0 0.0 2.0 98 98
+ 0.8904 1 2 cbr 500 ------- 0 0.0 2.0 98 98
- 0.8904 1 2 cbr 500 ------- 0 0.0 2.0 98 98
r 0.8944 1 2 cbr 500 ------- 0 0.0 2.0 38 38
+ 0.895 0 1 cbr 500 ------- 0 0.0 2.0 159 159
- 0.895 0 1 cbr 500 ------- 0 0.0 2.0 159 159
r 0.8954 0 1 cbr 500 ------- 0 0.0 2.0 99 99
+ 0.8954 1 2 cbr 500 ------- 0 0.0 2.0 99 99
- 0.8954 1 2 cbr 500 ------- 0 0.0 2.0 99 99
r 0.8994 1 2 cbr 500 ------- 0 0.0 2.0 39 39
+ 0.9 0 1 cbr 500 ------- 0 0.0 2.0 160 160
- 0.9 0 1 cbr 500 ------- 0 0.0 2.0 160 160
r 0.9004 0 1 cbr 500 ------- 0 0.0 2.0 100 100
+ 0.9004 1 2 cbr 500 ------- 0 0.0 2.0 100 100
- 0.9004 1 2 cbr 500 ------- 0 0.0 2.0 100 100
r 0.9044 1 2 cbr 500 ------- 0 0.0 2.0 40 40
+ 0.905 0 1 cbr 500 ------- 0 0.0 2.0 161 161
- 0.905 0 1 cbr 500 ------- 0 0.0 2.0 161 161
r 0.9054 0 1 cbr 500 ------- 0 0.0 2.0 101 101
+ 0.9054 1 2 cbr 500 ------- 0 0.0 2.0 101 101
- 0.9054 1 2 cbr 500 ------- 0 0.0 2.0 101 101
r 0.9094 1 2 cbr 500 ------- 0 0.0 2.0 41 41
+ 0.91 0 1 cbr 500 ------- 0 0.0 2.0 162 162
- 0.91 0 1 cbr 500 ------- 0 0.0 2.0 162 162