+ 0.1 0 4 ping 30000 ------- 0 0.0 4.0 -1 0
- 0.1 0 4 ping 30000 ------- 0 0.0 4.0 -1 0
+ 0.1 2 4 ping 64 ------- 0 2.0 3.0 -1 1
d 0.1 2 4 ping 64 ------- 0 2.0 3.0 -1 1
r 0.125 0 4 ping 30000 ------- 0 0.0 4.0 -1 0
+ 0.125 4 0 ping 64 ------- 0 4.0 0.0 -1 2
- 0.125 4 0 ping 64 ------- 0 4.0 0.0 -1 2
r 0.126051 4 0 ping 64 ------- 0 4.0 0.0 -1 2
+ 0.2 0 4 ping 30000 ------- 0 0.0 4.0 -1 3
- 0.2 0 4 ping 30000 ------- 0 0.0 4.0 -1 3
+ 0.2 2 4 ping 64 ------- 0 2.0 3.0 -1 4
d 0.2 2 4 ping 64 ------- 0 2.0 3.0 -1 4
r 0.225 0 4 ping 30000 ------- 0 0.0 4.0 -1 3
+ 0.225 4 0 ping 64 ------- 0 4.0 0.0 -1 5
- 0.225 4 0 ping 64 ------- 0 4.0 0.0 -1 5
r 0.226051 4 0 ping 64 ------- 0 4.0 0.0 -1 5
+ 0.3 0 4 ping 30000 ------- 0 0.0 4.0 -1 6
- 0.3 0 4 ping 30000 ------- 0 0.0 4.0 -1 6
+ 0.3 2 4 ping 64 ------- 0 2.0 3.0 -1 7
d 0.3 2 4 ping 64 ------- 0 2.0 3.0 -1 7
r 0.325 0 4 ping 30000 ------- 0 0.0 4.0 -1 6
+ 0.325 4 0 ping 64 ------- 0 4.0 0.0 -1 8
- 0.325 4 0 ping 64 ------- 0 4.0 0.0 -1 8
r 0.326051 4 0 ping 64 ------- 0 4.0 0.0 -1 8
+ 0.4 0 4 ping 30000 ------- 0 0.0 4.0 -1 9
- 0.4 0 4 ping 30000 ------- 0 0.0 4.0 -1 9
+ 0.4 2 4 ping 64 ------- 0 2.0 3.0 -1 10
d 0.4 2 4 ping 64 ------- 0 2.0 3.0 -1 10
r 0.425 0 4 ping 30000 ------- 0 0.0 4.0 -1 9
+ 0.425 4 0 ping 64 ------- 0 4.0 0.0 -1 11
- 0.425 4 0 ping 64 ------- 0 4.0 0.0 -1 11
r 0.426051 4 0 ping 64 ------- 0 4.0 0.0 -1 11
+ 0.5 0 4 ping 30000 ------- 0 0.0 4.0 -1 12
- 0.5 0 4 ping 30000 ------- 0 0.0 4.0 -1 12
+ 0.5 2 4 ping 64 ------- 0 2.0 3.0 -1 13
d 0.5 2 4 ping 64 ------- 0 2.0 3.0 -1 13
r 0.525 0 4 ping 30000 ------- 0 0.0 4.0 -1 12
+ 0.525 4 0 ping 64 ------- 0 4.0 0.0 -1 14
- 0.525 4 0 ping 64 ------- 0 4.0 0.0 -1 14
r 0.526051 4 0 ping 64 ------- 0 4.0 0.0 -1 14
+ 0.6 0 4 ping 30000 ------- 0 0.0 4.0 -1 15
- 0.6 0 4 ping 30000 ------- 0 0.0 4.0 -1 15
+ 0.6 2 4 ping 64 ------- 0 2.0 3.0 -1 16
d 0.6 2 4 ping 64 ------- 0 2.0 3.0 -1 16
r 0.625 0 4 ping 30000 ------- 0 0.0 4.0 -1 15
+ 0.625 4 0 ping 64 ------- 0 4.0 0.0 -1 17
- 0.625 4 0 ping 64 ------- 0 4.0 0.0 -1 17
r 0.626051 4 0 ping 64 ------- 0 4.0 0.0 -1 17
+ 0.7 0 4 ping 30000 ------- 0 0.0 4.0 -1 18
- 0.7 0 4 ping 30000 ------- 0 0.0 4.0 -1 18
+ 0.7 2 4 ping 64 ------- 0 2.0 3.0 -1 19
d 0.7 2 4 ping 64 ------- 0 2.0 3.0 -1 19
r 0.725 0 4 ping 30000 ------- 0 0.0 4.0 -1 18
+ 0.725 4 0 ping 64 ------- 0 4.0 0.0 -1 20
- 0.725 4 0 ping 64 ------- 0 4.0 0.0 -1 20
r 0.726051 4 0 ping 64 ------- 0 4.0 0.0 -1 20
+ 0.8 0 4 ping 30000 ------- 0 0.0 4.0 -1 21
- 0.8 0 4 ping 30000 ------- 0 0.0 4.0 -1 21
+ 0.8 2 4 ping 64 ------- 0 2.0 3.0 -1 22
d 0.8 2 4 ping 64 ------- 0 2.0 3.0 -1 22
r 0.825 0 4 ping 30000 ------- 0 0.0 4.0 -1 21
+ 0.825 4 0 ping 64 ------- 0 4.0 0.0 -1 23
- 0.825 4 0 ping 64 ------- 0 4.0 0.0 -1 23
r 0.826051 4 0 ping 64 ------- 0 4.0 0.0 -1 23
+ 0.9 0 4 ping 30000 ------- 0 0.0 4.0 -1 24
- 0.9 0 4 ping 30000 ------- 0 0.0 4.0 -1 24
+ 0.9 2 4 ping 64 ------- 0 2.0 3.0 -1 25
d 0.9 2 4 ping 64 ------- 0 2.0 3.0 -1 25
r 0.925 0 4 ping 30000 ------- 0 0.0 4.0 -1 24
+ 0.925 4 0 ping 64 ------- 0 4.0 0.0 -1 26
- 0.925 4 0 ping 64 ------- 0 4.0 0.0 -1 26
r 0.926051 4 0 ping 64 ------- 0 4.0 0.0 -1 26
+ 1 0 4 ping 30000 ------- 0 0.0 4.0 -1 27
- 1 0 4 ping 30000 ------- 0 0.0 4.0 -1 27
+ 1 2 4 ping 64 ------- 0 2.0 3.0 -1 28
d 1 2 4 ping 64 ------- 0 2.0 3.0 -1 28
r 1.025 0 4 ping 30000 ------- 0 0.0 4.0 -1 27
+ 1.025 4 0 ping 64 ------- 0 4.0 0.0 -1 29
- 1.025 4 0 ping 64 ------- 0 4.0 0.0 -1 29
r 1.026051 4 0 ping 64 ------- 0 4.0 0.0 -1 29
