+ 0.1 0 4 ping 50000 ------- 0 0.0 5.0 -1 0
- 0.1 0 4 ping 50000 ------- 0 0.0 5.0 -1 0
+ 0.1 2 4 ping 30000 ------- 0 2.0 3.0 -1 1
- 0.1 2 4 ping 30000 ------- 0 2.0 3.0 -1 1
r 0.101239 2 4 ping 30000 ------- 0 2.0 3.0 -1 1
+ 0.101239 4 3 ping 30000 ------- 0 2.0 3.0 -1 1
- 0.101239 4 3 ping 30000 ------- 0 2.0 3.0 -1 1
r 0.101398 0 4 ping 50000 ------- 0 0.0 5.0 -1 0
+ 0.101398 4 5 ping 50000 ------- 0 0.0 5.0 -1 0
- 0.101398 4 5 ping 50000 ------- 0 0.0 5.0 -1 0
r 0.102478 4 3 ping 30000 ------- 0 2.0 3.0 -1 1
+ 0.102478 3 4 ping 64 ------- 0 3.0 2.0 -1 2
- 0.102478 3 4 ping 64 ------- 0 3.0 2.0 -1 2
r 0.102796 4 5 ping 50000 ------- 0 0.0 5.0 -1 0
+ 0.102796 5 4 ping 64 ------- 0 5.0 0.0 -1 3
- 0.102796 5 4 ping 64 ------- 0 5.0 0.0 -1 3
r 0.103478 3 4 ping 64 ------- 0 3.0 2.0 -1 2
+ 0.103478 4 2 ping 64 ------- 0 3.0 2.0 -1 2
- 0.103478 4 2 ping 64 ------- 0 3.0 2.0 -1 2
r 0.103797 5 4 ping 64 ------- 0 5.0 0.0 -1 3
+ 0.103797 4 0 ping 64 ------- 0 5.0 0.0 -1 3
- 0.103797 4 0 ping 64 ------- 0 5.0 0.0 -1 3
r 0.104479 4 2 ping 64 ------- 0 3.0 2.0 -1 2
r 0.104797 4 0 ping 64 ------- 0 5.0 0.0 -1 3
+ 0.2 0 4 ping 50000 ------- 0 0.0 5.0 -1 4
- 0.2 0 4 ping 50000 ------- 0 0.0 5.0 -1 4
+ 0.2 2 4 ping 30000 ------- 0 2.0 3.0 -1 5
- 0.2 2 4 ping 30000 ------- 0 2.0 3.0 -1 5
r 0.201239 2 4 ping 30000 ------- 0 2.0 3.0 -1 5
+ 0.201239 4 3 ping 30000 ------- 0 2.0 3.0 -1 5
- 0.201239 4 3 ping 30000 ------- 0 2.0 3.0 -1 5
r 0.201398 0 4 ping 50000 ------- 0 0.0 5.0 -1 4
+ 0.201398 4 5 ping 50000 ------- 0 0.0 5.0 -1 4
- 0.201398 4 5 ping 50000 ------- 0 0.0 5.0 -1 4
r 0.202478 4 3 ping 30000 ------- 0 2.0 3.0 -1 5
+ 0.202478 3 4 ping 64 ------- 0 3.0 2.0 -1 6
- 0.202478 3 4 ping 64 ------- 0 3.0 2.0 -1 6
r 0.202796 4 5 ping 50000 ------- 0 0.0 5.0 -1 4
+ 0.202796 5 4 ping 64 ------- 0 5.0 0.0 -1 7
- 0.202796 5 4 ping 64 ------- 0 5.0 0.0 -1 7
r 0.203478 3 4 ping 64 ------- 0 3.0 2.0 -1 6
+ 0.203478 4 2 ping 64 ------- 0 3.0 2.0 -1 6
- 0.203478 4 2 ping 64 ------- 0 3.0 2.0 -1 6
r 0.203797 5 4 ping 64 ------- 0 5.0 0.0 -1 7
+ 0.203797 4 0 ping 64 ------- 0 5.0 0.0 -1 7
- 0.203797 4 0 ping 64 ------- 0 5.0 0.0 -1 7
r 0.204479 4 2 ping 64 ------- 0 3.0 2.0 -1 6
r 0.204797 4 0 ping 64 ------- 0 5.0 0.0 -1 7
+ 0.3 0 4 ping 50000 ------- 0 0.0 5.0 -1 8
- 0.3 0 4 ping 50000 ------- 0 0.0 5.0 -1 8
+ 0.3 2 4 ping 30000 ------- 0 2.0 3.0 -1 9
- 0.3 2 4 ping 30000 ------- 0 2.0 3.0 -1 9
r 0.301239 2 4 ping 30000 ------- 0 2.0 3.0 -1 9
+ 0.301239 4 3 ping 30000 ------- 0 2.0 3.0 -1 9
- 0.301239 4 3 ping 30000 ------- 0 2.0 3.0 -1 9
r 0.301398 0 4 ping 50000 ------- 0 0.0 5.0 -1 8
+ 0.301398 4 5 ping 50000 ------- 0 0.0 5.0 -1 8
- 0.301398 4 5 ping 50000 ------- 0 0.0 5.0 -1 8
r 0.302478 4 3 ping 30000 ------- 0 2.0 3.0 -1 9
+ 0.302478 3 4 ping 64 ------- 0 3.0 2.0 -1 10
- 0.302478 3 4 ping 64 ------- 0 3.0 2.0 -1 10
r 0.302796 4 5 ping 50000 ------- 0 0.0 5.0 -1 8
+ 0.302796 5 4 ping 64 ------- 0 5.0 0.0 -1 11
- 0.302796 5 4 ping 64 ------- 0 5.0 0.0 -1 11
r 0.303478 3 4 ping 64 ------- 0 3.0 2.0 -1 10
+ 0.303478 4 2 ping 64 ------- 0 3.0 2.0 -1 10
- 0.303478 4 2 ping 64 ------- 0 3.0 2.0 -1 10
r 0.303797 5 4 ping 64 ------- 0 5.0 0.0 -1 11
+ 0.303797 4 0 ping 64 ------- 0 5.0 0.0 -1 11
- 0.303797 4 0 ping 64 ------- 0 5.0 0.0 -1 11
r 0.304479 4 2 ping 64 ------- 0 3.0 2.0 -1 10
r 0.304797 4 0 ping 64 ------- 0 5.0 0.0 -1 11
+ 0.4 0 4 ping 50000 ------- 0 0.0 5.0 -1 12
- 0.4 0 4 ping 50000 ------- 0 0.0 5.0 -1 12
+ 0.4 2 4 ping 30000 ------- 0 2.0 3.0 -1 13
- 0.4 2 4 ping 30000 ------- 0 2.0 3.0 -1 13
r 0.401239 2 4 ping 30000 ------- 0 2.0 3.0 -1 13
+ 0.401239 4 3 ping 30000 ------- 0 2.0 3.0 -1 13
- 0.401239 4 3 ping 30000 ------- 0 2.0 3.0 -1 13
r 0.401398 0 4 ping 50000 ------- 0 0.0 5.0 -1 12
+ 0.401398 4 5 ping 50000 ------- 0 0.0 5.0 -1 12
- 0.401398 4 5 ping 50000 ------- 0 0.0 5.0 -1 12
r 0.402478 4 3 ping 30000 ------- 0 2.0 3.0 -1 13
+ 0.402478 3 4 ping 64 ------- 0 3.0 2.0 -1 14
- 0.402478 3 4 ping 64 ------- 0 3.0 2.0 -1 14
r 0.402796 4 5 ping 50000 ------- 0 0.0 5.0 -1 12
+ 0.402796 5 4 ping 64 ------- 0 5.0 0.0 -1 15
- 0.402796 5 4 ping 64 ------- 0 5.0 0.0 -1 15
r 0.403478 3 4 ping 64 ------- 0 3.0 2.0 -1 14
+ 0.403478 4 2 ping 64 ------- 0 3.0 2.0 -1 14
- 0.403478 4 2 ping 64 ------- 0 3.0 2.0 -1 14
r 0.403797 5 4 ping 64 ------- 0 5.0 0.0 -1 15
+ 0.403797 4 0 ping 64 ------- 0 5.0 0.0 -1 15
- 0.403797 4 0 ping 64 ------- 0 5.0 0.0 -1 15
r 0.404479 4 2 ping 64 ------- 0 3.0 2.0 -1 14
r 0.404797 4 0 ping 64 ------- 0 5.0 0.0 -1 15
+ 0.5 0 4 ping 50000 ------- 0 0.0 5.0 -1 16
- 0.5 0 4 ping 50000 ------- 0 0.0 5.0 -1 16
+ 0.5 2 4 ping 30000 ------- 0 2.0 3.0 -1 17
- 0.5 2 4 ping 30000 ------- 0 2.0 3.0 -1 17
r 0.501239 2 4 ping 30000 ------- 0 2.0 3.0 -1 17
+ 0.501239 4 3 ping 30000 ------- 0 2.0 3.0 -1 17
- 0.501239 4 3 ping 30000 ------- 0 2.0 3.0 -1 17
r 0.501398 0 4 ping 50000 ------- 0 0.0 5.0 -1 16
+ 0.501398 4 5 ping 50000 ------- 0 0.0 5.0 -1 16
- 0.501398 4 5 ping 50000 ------- 0 0.0 5.0 -1 16
r 0.502478 4 3 ping 30000 ------- 0 2.0 3.0 -1 17
+ 0.502478 3 4 ping 64 ------- 0 3.0 2.0 -1 18
- 0.502478 3 4 ping 64 ------- 0 3.0 2.0 -1 18
r 0.502796 4 5 ping 50000 ------- 0 0.0 5.0 -1 16
+ 0.502796 5 4 ping 64 ------- 0 5.0 0.0 -1 19
- 0.502796 5 4 ping 64 ------- 0 5.0 0.0 -1 19
r 0.503478 3 4 ping 64 ------- 0 3.0 2.0 -1 18
+ 0.503478 4 2 ping 64 ------- 0 3.0 2.0 -1 18
- 0.503478 4 2 ping 64 ------- 0 3.0 2.0 -1 18
r 0.503797 5 4 ping 64 ------- 0 5.0 0.0 -1 19
+ 0.503797 4 0 ping 64 ------- 0 5.0 0.0 -1 19
- 0.503797 4 0 ping 64 ------- 0 5.0 0.0 -1 19
r 0.504479 4 2 ping 64 ------- 0 3.0 2.0 -1 18
r 0.504797 4 0 ping 64 ------- 0 5.0 0.0 -1 19
+ 0.6 0 4 ping 50000 ------- 0 0.0 5.0 -1 20
- 0.6 0 4 ping 50000 ------- 0 0.0 5.0 -1 20
+ 0.6 2 4 ping 30000 ------- 0 2.0 3.0 -1 21
- 0.6 2 4 ping 30000 ------- 0 2.0 3.0 -1 21
r 0.601239 2 4 ping 30000 ------- 0 2.0 3.0 -1 21
+ 0.601239 4 3 ping 30000 ------- 0 2.0 3.0 -1 21
- 0.601239 4 3 ping 30000 ------- 0 2.0 3.0 -1 21
r 0.601398 0 4 ping 50000 ------- 0 0.0 5.0 -1 20
+ 0.601398 4 5 ping 50000 ------- 0 0.0 5.0 -1 20
- 0.601398 4 5 ping 50000 ------- 0 0.0 5.0 -1 20
r 0.602478 4 3 ping 30000 ------- 0 2.0 3.0 -1 21
+ 0.602478 3 4 ping 64 ------- 0 3.0 2.0 -1 22
- 0.602478 3 4 ping 64 ------- 0 3.0 2.0 -1 22
r 0.602796 4 5 ping 50000 ------- 0 0.0 5.0 -1 20
+ 0.602796 5 4 ping 64 ------- 0 5.0 0.0 -1 23
- 0.602796 5 4 ping 64 ------- 0 5.0 0.0 -1 23
r 0.603478 3 4 ping 64 ------- 0 3.0 2.0 -1 22
+ 0.603478 4 2 ping 64 ------- 0 3.0 2.0 -1 22
- 0.603478 4 2 ping 64 ------- 0 3.0 2.0 -1 22
r 0.603797 5 4 ping 64 ------- 0 5.0 0.0 -1 23
+ 0.603797 4 0 ping 64 ------- 0 5.0 0.0 -1 23
- 0.603797 4 0 ping 64 ------- 0 5.0 0.0 -1 23
r 0.604479 4 2 ping 64 ------- 0 3.0 2.0 -1 22
r 0.604797 4 0 ping 64 ------- 0 5.0 0.0 -1 23
+ 0.7 0 4 ping 50000 ------- 0 0.0 5.0 -1 24
- 0.7 0 4 ping 50000 ------- 0 0.0 5.0 -1 24
+ 0.7 2 4 ping 30000 ------- 0 2.0 3.0 -1 25
- 0.7 2 4 ping 30000 ------- 0 2.0 3.0 -1 25
r 0.701239 2 4 ping 30000 ------- 0 2.0 3.0 -1 25
+ 0.701239 4 3 ping 30000 ------- 0 2.0 3.0 -1 25
- 0.701239 4 3 ping 30000 ------- 0 2.0 3.0 -1 25
r 0.701398 0 4 ping 50000 ------- 0 0.0 5.0 -1 24
+ 0.701398 4 5 ping 50000 ------- 0 0.0 5.0 -1 24
- 0.701398 4 5 ping 50000 ------- 0 0.0 5.0 -1 24
r 0.702478 4 3 ping 30000 ------- 0 2.0 3.0 -1 25
+ 0.702478 3 4 ping 64 ------- 0 3.0 2.0 -1 26
- 0.702478 3 4 ping 64 ------- 0 3.0 2.0 -1 26
r 0.702796 4 5 ping 50000 ------- 0 0.0 5.0 -1 24
+ 0.702796 5 4 ping 64 ------- 0 5.0 0.0 -1 27
- 0.702796 5 4 ping 64 ------- 0 5.0 0.0 -1 27
r 0.703478 3 4 ping 64 ------- 0 3.0 2.0 -1 26
+ 0.703478 4 2 ping 64 ------- 0 3.0 2.0 -1 26
- 0.703478 4 2 ping 64 ------- 0 3.0 2.0 -1 26
r 0.703797 5 4 ping 64 ------- 0 5.0 0.0 -1 27
+ 0.703797 4 0 ping 64 ------- 0 5.0 0.0 -1 27
- 0.703797 4 0 ping 64 ------- 0 5.0 0.0 -1 27
r 0.704479 4 2 ping 64 ------- 0 3.0 2.0 -1 26
r 0.704797 4 0 ping 64 ------- 0 5.0 0.0 -1 27
+ 0.8 0 4 ping 50000 ------- 0 0.0 5.0 -1 28
- 0.8 0 4 ping 50000 ------- 0 0.0 5.0 -1 28
+ 0.8 2 4 ping 30000 ------- 0 2.0 3.0 -1 29
- 0.8 2 4 ping 30000 ------- 0 2.0 3.0 -1 29
r 0.801239 2 4 ping 30000 ------- 0 2.0 3.0 -1 29
+ 0.801239 4 3 ping 30000 ------- 0 2.0 3.0 -1 29
- 0.801239 4 3 ping 30000 ------- 0 2.0 3.0 -1 29
r 0.801398 0 4 ping 50000 ------- 0 0.0 5.0 -1 28
+ 0.801398 4 5 ping 50000 ------- 0 0.0 5.0 -1 28
- 0.801398 4 5 ping 50000 ------- 0 0.0 5.0 -1 28
r 0.802478 4 3 ping 30000 ------- 0 2.0 3.0 -1 29
+ 0.802478 3 4 ping 64 ------- 0 3.0 2.0 -1 30
- 0.802478 3 4 ping 64 ------- 0 3.0 2.0 -1 30
r 0.802796 4 5 ping 50000 ------- 0 0.0 5.0 -1 28
+ 0.802796 5 4 ping 64 ------- 0 5.0 0.0 -1 31
- 0.802796 5 4 ping 64 ------- 0 5.0 0.0 -1 31
r 0.803478 3 4 ping 64 ------- 0 3.0 2.0 -1 30
+ 0.803478 4 2 ping 64 ------- 0 3.0 2.0 -1 30
- 0.803478 4 2 ping 64 ------- 0 3.0 2.0 -1 30
r 0.803797 5 4 ping 64 ------- 0 5.0 0.0 -1 31
+ 0.803797 4 0 ping 64 ------- 0 5.0 0.0 -1 31
- 0.803797 4 0 ping 64 ------- 0 5.0 0.0 -1 31
r 0.804479 4 2 ping 64 ------- 0 3.0 2.0 -1 30
r 0.804797 4 0 ping 64 ------- 0 5.0 0.0 -1 31
+ 0.9 0 4 ping 50000 ------- 0 0.0 5.0 -1 32
- 0.9 0 4 ping 50000 ------- 0 0.0 5.0 -1 32
+ 0.9 2 4 ping 30000 ------- 0 2.0 3.0 -1 33
- 0.9 2 4 ping 30000 ------- 0 2.0 3.0 -1 33
r 0.901239 2 4 ping 30000 ------- 0 2.0 3.0 -1 33
+ 0.901239 4 3 ping 30000 ------- 0 2.0 3.0 -1 33
- 0.901239 4 3 ping 30000 ------- 0 2.0 3.0 -1 33
r 0.901398 0 4 ping 50000 ------- 0 0.0 5.0 -1 32
+ 0.901398 4 5 ping 50000 ------- 0 0.0 5.0 -1 32
- 0.901398 4 5 ping 50000 ------- 0 0.0 5.0 -1 32
r 0.902478 4 3 ping 30000 ------- 0 2.0 3.0 -1 33
+ 0.902478 3 4 ping 64 ------- 0 3.0 2.0 -1 34
- 0.902478 3 4 ping 64 ------- 0 3.0 2.0 -1 34
r 0.902796 4 5 ping 50000 ------- 0 0.0 5.0 -1 32
+ 0.902796 5 4 ping 64 ------- 0 5.0 0.0 -1 35
- 0.902796 5 4 ping 64 ------- 0 5.0 0.0 -1 35
r 0.903478 3 4 ping 64 ------- 0 3.0 2.0 -1 34
+ 0.903478 4 2 ping 64 ------- 0 3.0 2.0 -1 34
- 0.903478 4 2 ping 64 ------- 0 3.0 2.0 -1 34
r 0.903797 5 4 ping 64 ------- 0 5.0 0.0 -1 35
+ 0.903797 4 0 ping 64 ------- 0 5.0 0.0 -1 35
- 0.903797 4 0 ping 64 ------- 0 5.0 0.0 -1 35
r 0.904479 4 2 ping 64 ------- 0 3.0 2.0 -1 34
r 0.904797 4 0 ping 64 ------- 0 5.0 0.0 -1 35
+ 1 0 4 ping 50000 ------- 0 0.0 5.0 -1 36
- 1 0 4 ping 50000 ------- 0 0.0 5.0 -1 36
+ 1 2 4 ping 30000 ------- 0 2.0 3.0 -1 37
- 1 2 4 ping 30000 ------- 0 2.0 3.0 -1 37
r 1.001239 2 4 ping 30000 ------- 0 2.0 3.0 -1 37
+ 1.001239 4 3 ping 30000 ------- 0 2.0 3.0 -1 37
- 1.001239 4 3 ping 30000 ------- 0 2.0 3.0 -1 37
r 1.001398 0 4 ping 50000 ------- 0 0.0 5.0 -1 36
+ 1.001398 4 5 ping 50000 ------- 0 0.0 5.0 -1 36
- 1.001398 4 5 ping 50000 ------- 0 0.0 5.0 -1 36
r 1.002478 4 3 ping 30000 ------- 0 2.0 3.0 -1 37
+ 1.002478 3 4 ping 64 ------- 0 3.0 2.0 -1 38
- 1.002478 3 4 ping 64 ------- 0 3.0 2.0 -1 38
r 1.002796 4 5 ping 50000 ------- 0 0.0 5.0 -1 36
+ 1.002796 5 4 ping 64 ------- 0 5.0 0.0 -1 39
- 1.002796 5 4 ping 64 ------- 0 5.0 0.0 -1 39
r 1.003478 3 4 ping 64 ------- 0 3.0 2.0 -1 38
+ 1.003478 4 2 ping 64 ------- 0 3.0 2.0 -1 38
- 1.003478 4 2 ping 64 ------- 0 3.0 2.0 -1 38
r 1.003797 5 4 ping 64 ------- 0 5.0 0.0 -1 39
+ 1.003797 4 0 ping 64 ------- 0 5.0 0.0 -1 39
- 1.003797 4 0 ping 64 ------- 0 5.0 0.0 -1 39
r 1.004479 4 2 ping 64 ------- 0 3.0 2.0 -1 38
r 1.004797 4 0 ping 64 ------- 0 5.0 0.0 -1 39
